<?xml version="1.0"?>
<VTKFile type="PolyData" version="0.1" byte_order="LittleEndian">
 <PolyData>
  <Piece Name ="GranularBody" NumberOfPoints="800" NumberOfVerts="800">
   <Points>
    <DataArray Name="Position" type="Float32"  NumberOfComponents="3" Format="ascii">
    0.0025 0.0025 0 0.0025 0.0075 0 0.0025 0.0125 0 0.0025 0.0175 0 0.0025 0.0225 0 0.0025 0.0275 0 0.0025 0.0325 0 0.0025 0.0375 0 0.0025 0.0425 0 0.0025 0.0475 0 0.0025 0.0525 0 0.0025 0.0575 0 0.0025 0.0625 0 0.0025 0.0675 0 0.0025 0.0725 0 0.0025 0.0775 0 0.0025 0.0825 0 0.0025 0.0875 0 0.0025 0.0925 0 0.0025 0.0975 0 0.0075 0.0025 0 0.0075 0.0075 0 0.0075 0.0125 0 0.0075 0.0175 0 0.0075 0.0225 0 0.0075 0.0275 0 0.0075 0.0325 0 0.0075 0.0375 0 0.0075 0.0425 0 0.0075 0.0475 0 0.0075 0.0525 0 0.0075 0.0575 0 0.0075 0.0625 0 0.0075 0.0675 0 0.0075 0.0725 0 0.0075 0.0775 0 0.0075 0.0825 0 0.0075 0.0875 0 0.0075 0.0925 0 0.0075 0.0975 0 0.0125 0.0025 0 0.0125 0.0075 0 0.0125 0.0125 0 0.0125 0.0175 0 0.0125 0.0225 0 0.0125 0.0275 0 0.0125 0.0325 0 0.0125 0.0375 0 0.0125 0.0425 0 0.0125 0.0475 0 0.0125 0.0525 0 0.0125 0.0575 0 0.0125 0.0625 0 0.0125 0.0675 0 0.0125 0.0725 0 0.0125 0.0775 0 0.0125 0.0825 0 0.0125 0.0875 0 0.0125 0.0925 0 0.0125 0.0975 0 0.0175 0.0025 0 0.0175 0.0075 0 0.0175 0.0125 0 0.0175 0.0175 0 0.0175 0.0225 0 0.0175 0.0275 0 0.0175 0.0325 0 0.0175 0.0375 0 0.0175 0.0425 0 0.0175 0.0475 0 0.0175 0.0525 0 0.0175 0.0575 0 0.0175 0.0625 0 0.0175 0.0675 0 0.0175 0.0725 0 0.0175 0.0775 0 0.0175 0.0825 0 0.0175 0.0875 0 0.0175 0.0925 0 0.0175 0.0975 0 0.0225 0.0025 0 0.0225 0.0075 0 0.0225 0.0125 0 0.0225 0.0175 0 0.0225 0.0225 0 0.0225 0.0275 0 0.0225 0.0325 0 0.0225 0.0375 0 0.0225 0.0425 0 0.0225 0.0475 0 0.0225 0.0525 0 0.0225 0.0575 0 0.0225 0.0625 0 0.0225 0.0675 0 0.0225 0.0725 0 0.0225 0.0775 0 0.0225 0.0825 0 0.0225 0.0875 0 0.0225 0.0925 0 0.0225 0.0975 0 0.0275 0.0025 0 0.0275 0.0075 0 0.0275 0.0125 0 0.0275 0.0175 0 0.0275 0.0225 0 0.0275 0.0275 0 0.0275 0.0325 0 0.0275 0.0375 0 0.0275 0.0425 0 0.0275 0.0475 0 0.0275 0.0525 0 0.0275 0.0575 0 0.0275 0.0625 0 0.0275 0.0675 0 0.0275 0.0725 0 0.0275 0.0775 0 0.0275 0.0825 0 0.0275 0.0875 0 0.0275 0.0925 0 0.0275 0.0975 0 0.0325 0.0025 0 0.0325 0.0075 0 0.0325 0.0125 0 0.0325 0.0175 0 0.0325 0.0225 0 0.0325 0.0275 0 0.0325 0.0325 0 0.0325 0.0375 0 0.0325 0.0425 0 0.0325 0.0475 0 0.0325 0.0525 0 0.0325 0.0575 0 0.0325 0.0625 0 0.0325 0.0675 0 0.0325 0.0725 0 0.0325 0.0775 0 0.0325 0.0825 0 0.0325 0.0875 0 0.0325 0.0925 0 0.0325 0.0975 0 0.0375 0.0025 0 0.0375 0.0075 0 0.0375 0.0125 0 0.0375 0.0175 0 0.0375 0.0225 0 0.0375 0.0275 0 0.0375 0.0325 0 0.0375 0.0375 0 0.0375 0.0425 0 0.0375 0.0475 0 0.0375 0.0525 0 0.0375 0.0575 0 0.0375 0.0625 0 0.0375 0.0675 0 0.0375 0.0725 0 0.0375 0.0775 0 0.0375 0.0825 0 0.0375 0.0875 0 0.0375 0.0925 0 0.0375 0.0975 0 0.0425 0.0025 0 0.0425 0.0075 0 0.0425 0.0125 0 0.0425 0.0175 0 0.0425 0.0225 0 0.0425 0.0275 0 0.0425 0.0325 0 0.0425 0.0375 0 0.0425 0.0425 0 0.0425 0.0475 0 0.0425 0.0525 0 0.0425 0.0575 0 0.0425 0.0625 0 0.0425 0.0675 0 0.0425 0.0725 0 0.0425 0.0775 0 0.0425 0.0825 0 0.0425 0.0875 0 0.0425 0.0925 0 0.0425 0.0975 0 0.0475 0.0025 0 0.0475 0.0075 0 0.0475 0.0125 0 0.0475 0.0175 0 0.0475 0.0225 0 0.0475 0.0275 0 0.0475 0.0325 0 0.0475 0.0375 0 0.0475 0.0425 0 0.0475 0.0475 0 0.0475 0.0525 0 0.0475 0.0575 0 0.0475 0.0625 0 0.0475 0.0675 0 0.0475 0.0725 0 0.0475 0.0775 0 0.0475 0.0825 0 0.0475 0.0875 0 0.0475 0.0925 0 0.0475 0.0975 0 0.0525 0.0025 0 0.0525 0.0075 0 0.0525 0.0125 0 0.0525 0.0175 0 0.0525 0.0225 0 0.0525 0.0275 0 0.0525 0.0325 0 0.0525 0.0375 0 0.0525 0.0425 0 0.0525 0.0475 0 0.0525 0.0525 0 0.0525 0.0575 0 0.0525 0.0625 0 0.0525 0.0675 0 0.0525 0.0725 0 0.0525 0.0775 0 0.0525 0.0825 0 0.0525 0.0875 0 0.0525 0.0925 0 0.0525 0.0975 0 0.0575 0.0025 0 0.0575 0.0075 0 0.0575 0.0125 0 0.0575 0.0175 0 0.0575 0.0225 0 0.0575 0.0275 0 0.0575 0.0325 0 0.0575 0.0375 0 0.0575 0.0425 0 0.0575 0.0475 0 0.0575 0.0525 0 0.0575 0.0575 0 0.0575 0.0625 0 0.0575 0.0675 0 0.0575 0.0725 0 0.0575 0.0775 0 0.0575 0.0825 0 0.0575 0.0875 0 0.0575 0.0925 0 0.0575 0.0975 0 0.0625 0.0025 0 0.0625 0.0075 0 0.0625 0.0125 0 0.0625 0.0175 0 0.0625 0.0225 0 0.0625 0.0275 0 0.0625 0.0325 0 0.0625 0.0375 0 0.0625 0.0425 0 0.0625 0.0475 0 0.0625 0.0525 0 0.0625 0.0575 0 0.0625 0.0625 0 0.0625 0.0675 0 0.0625 0.0725 0 0.0625 0.0775 0 0.0625 0.0825 0 0.0625 0.0875 0 0.0625 0.0925 0 0.0625 0.0975 0 0.0675 0.0025 0 0.0675 0.0075 0 0.0675 0.0125 0 0.0675 0.0175 0 0.0675 0.0225 0 0.0675 0.0275 0 0.0675 0.0325 0 0.0675 0.0375 0 0.0675 0.0425 0 0.0675 0.0475 0 0.0675 0.0525 0 0.0675 0.0575 0 0.0675 0.0625 0 0.0675 0.0675 0 0.0675 0.0725 0 0.0675 0.0775 0 0.0675 0.0825 0 0.0675 0.0875 0 0.0675 0.0925 0 0.0675 0.0975 0 0.0725 0.0025 0 0.0725 0.0075 0 0.0725 0.0125 0 0.0725 0.0175 0 0.0725 0.0225 0 0.0725 0.0275 0 0.0725 0.0325 0 0.0725 0.0375 0 0.0725 0.0425 0 0.0725 0.0475 0 0.0725 0.0525 0 0.0725 0.0575 0 0.0725 0.0625 0 0.0725 0.0675 0 0.0725 0.0725 0 0.0725 0.0775 0 0.0725 0.0825 0 0.0725 0.0875 0 0.0725 0.0925 0 0.0725 0.0975 0 0.0775 0.0025 0 0.0775 0.0075 0 0.0775 0.0125 0 0.0775 0.0175 0 0.0775 0.0225 0 0.0775 0.0275 0 0.0775 0.0325 0 0.0775 0.0375 0 0.0775 0.0425 0 0.0775 0.0475 0 0.0775 0.0525 0 0.0775 0.0575 0 0.0775 0.0625 0 0.0775 0.0675 0 0.0775 0.0725 0 0.0775 0.0775 0 0.0775 0.0825 0 0.0775 0.0875 0 0.0775 0.0925 0 0.0775 0.0975 0 0.0825 0.0025 0 0.0825 0.0075 0 0.0825 0.0125 0 0.0825 0.0175 0 0.0825 0.0225 0 0.0825 0.0275 0 0.0825 0.0325 0 0.0825 0.0375 0 0.0825 0.0425 0 0.0825 0.0475 0 0.0825 0.0525 0 0.0825 0.0575 0 0.0825 0.0625 0 0.0825 0.0675 0 0.0825 0.0725 0 0.0825 0.0775 0 0.0825 0.0825 0 0.0825 0.0875 0 0.0825 0.0925 0 0.0825 0.0975 0 0.0875 0.0025 0 0.0875 0.0075 0 0.0875 0.0125 0 0.0875 0.0175 0 0.0875 0.0225 0 0.0875 0.0275 0 0.0875 0.0325 0 0.0875 0.0375 0 0.0875 0.0425 0 0.0875 0.0475 0 0.0875 0.0525 0 0.0875 0.0575 0 0.0875 0.0625 0 0.0875 0.0675 0 0.0875 0.0725 0 0.0875 0.0775 0 0.0875 0.0825 0 0.0875 0.0875 0 0.0875 0.0925 0 0.0875 0.0975 0 0.0925 0.0025 0 0.0925 0.0075 0 0.0925 0.0125 0 0.0925 0.0175 0 0.0925 0.0225 0 0.0925 0.0275 0 0.0925 0.0325 0 0.0925 0.0375 0 0.0925 0.0425 0 0.0925 0.0475 0 0.0925 0.0525 0 0.0925 0.0575 0 0.0925 0.0625 0 0.0925 0.0675 0 0.0925 0.0725 0 0.0925 0.0775 0 0.0925 0.0825 0 0.0925 0.0875 0 0.0925 0.0925 0 0.0925 0.0975 0 0.0975 0.0025 0 0.0975 0.0075 0 0.0975 0.0125 0 0.0975 0.0175 0 0.0975 0.0225 0 0.0975 0.0275 0 0.0975 0.0325 0 0.0975 0.0375 0 0.0975 0.0425 0 0.0975 0.0475 0 0.0975 0.0525 0 0.0975 0.0575 0 0.0975 0.0625 0 0.0975 0.0675 0 0.0975 0.0725 0 0.0975 0.0775 0 0.0975 0.0825 0 0.0975 0.0875 0 0.0975 0.0925 0 0.0975 0.0975 0 0.1025 0.0025 0 0.1025 0.0075 0 0.1025 0.0125 0 0.1025 0.0175 0 0.1025 0.0225 0 0.1025 0.0275 0 0.1025 0.0325 0 0.1025 0.0375 0 0.1025 0.0425 0 0.1025 0.0475 0 0.1025 0.0525 0 0.1025 0.0575 0 0.1025 0.0625 0 0.1025 0.0675 0 0.1025 0.0725 0 0.1025 0.0775 0 0.1025 0.0825 0 0.1025 0.0875 0 0.1025 0.0925 0 0.1025 0.0975 0 0.1075 0.0025 0 0.1075 0.0075 0 0.1075 0.0125 0 0.1075 0.0175 0 0.1075 0.0225 0 0.1075 0.0275 0 0.1075 0.0325 0 0.1075 0.0375 0 0.1075 0.0425 0 0.1075 0.0475 0 0.1075 0.0525 0 0.1075 0.0575 0 0.1075 0.0625 0 0.1075 0.0675 0 0.1075 0.0725 0 0.1075 0.0775 0 0.1075 0.0825 0 0.1075 0.0875 0 0.1075 0.0925 0 0.1075 0.0975 0 0.1125 0.0025 0 0.1125 0.0075 0 0.1125 0.0125 0 0.1125 0.0175 0 0.1125 0.0225 0 0.1125 0.0275 0 0.1125 0.0325 0 0.1125 0.0375 0 0.1125 0.0425 0 0.1125 0.0475 0 0.1125 0.0525 0 0.1125 0.0575 0 0.1125 0.0625 0 0.1125 0.0675 0 0.1125 0.0725 0 0.1125 0.0775 0 0.1125 0.0825 0 0.1125 0.0875 0 0.1125 0.0925 0 0.1125 0.0975 0 0.1175 0.0025 0 0.1175 0.0075 0 0.1175 0.0125 0 0.1175 0.0175 0 0.1175 0.0225 0 0.1175 0.0275 0 0.1175 0.0325 0 0.1175 0.0375 0 0.1175 0.0425 0 0.1175 0.0475 0 0.1175 0.0525 0 0.1175 0.0575 0 0.1175 0.0625 0 0.1175 0.0675 0 0.1175 0.0725 0 0.1175 0.0775 0 0.1175 0.0825 0 0.1175 0.0875 0 0.1175 0.0925 0 0.1175 0.0975 0 0.1225 0.0025 0 0.1225 0.0075 0 0.1225 0.0125 0 0.1225 0.0175 0 0.1225 0.0225 0 0.1225 0.0275 0 0.1225 0.0325 0 0.1225 0.0375 0 0.1225 0.0425 0 0.1225 0.0475 0 0.1225 0.0525 0 0.1225 0.0575 0 0.1225 0.0625 0 0.1225 0.0675 0 0.1225 0.0725 0 0.1225 0.0775 0 0.1225 0.0825 0 0.1225 0.0875 0 0.1225 0.0925 0 0.1225 0.0975 0 0.1275 0.0025 0 0.1275 0.0075 0 0.1275 0.0125 0 0.1275 0.0175 0 0.1275 0.0225 0 0.1275 0.0275 0 0.1275 0.0325 0 0.1275 0.0375 0 0.1275 0.0425 0 0.1275 0.0475 0 0.1275 0.0525 0 0.1275 0.0575 0 0.1275 0.0625 0 0.1275 0.0675 0 0.1275 0.0725 0 0.1275 0.0775 0 0.1275 0.0825 0 0.1275 0.0875 0 0.1275 0.0925 0 0.1275 0.0975 0 0.1325 0.0025 0 0.1325 0.0075 0 0.1325 0.0125 0 0.1325 0.0175 0 0.1325 0.0225 0 0.1325 0.0275 0 0.1325 0.0325 0 0.1325 0.0375 0 0.1325 0.0425 0 0.1325 0.0475 0 0.1325 0.0525 0 0.1325 0.0575 0 0.1325 0.0625 0 0.1325 0.0675 0 0.1325 0.0725 0 0.1325 0.0775 0 0.1325 0.0825 0 0.1325 0.0875 0 0.1325 0.0925 0 0.1325 0.0975 0 0.1375 0.0025 0 0.1375 0.0075 0 0.1375 0.0125 0 0.1375 0.0175 0 0.1375 0.0225 0 0.1375 0.0275 0 0.1375 0.0325 0 0.1375 0.0375 0 0.1375 0.0425 0 0.1375 0.0475 0 0.1375 0.0525 0 0.1375 0.0575 0 0.1375 0.0625 0 0.1375 0.0675 0 0.1375 0.0725 0 0.1375 0.0775 0 0.1375 0.0825 0 0.1375 0.0875 0 0.1375 0.0925 0 0.1375 0.0975 0 0.1425 0.0025 0 0.1425 0.0075 0 0.1425 0.0125 0 0.1425 0.0175 0 0.1425 0.0225 0 0.1425 0.0275 0 0.1425 0.0325 0 0.1425 0.0375 0 0.1425 0.0425 0 0.1425 0.0475 0 0.1425 0.0525 0 0.1425 0.0575 0 0.1425 0.0625 0 0.1425 0.0675 0 0.1425 0.0725 0 0.1425 0.0775 0 0.1425 0.0825 0 0.1425 0.0875 0 0.1425 0.0925 0 0.1425 0.0975 0 0.1475 0.0025 0 0.1475 0.0075 0 0.1475 0.0125 0 0.1475 0.0175 0 0.1475 0.0225 0 0.1475 0.0275 0 0.1475 0.0325 0 0.1475 0.0375 0 0.1475 0.0425 0 0.1475 0.0475 0 0.1475 0.0525 0 0.1475 0.0575 0 0.1475 0.0625 0 0.1475 0.0675 0 0.1475 0.0725 0 0.1475 0.0775 0 0.1475 0.0825 0 0.1475 0.0875 0 0.1475 0.0925 0 0.1475 0.0975 0 0.1525 0.0025 0 0.1525 0.0075 0 0.1525 0.0125 0 0.1525 0.0175 0 0.1525 0.0225 0 0.1525 0.0275 0 0.1525 0.0325 0 0.1525 0.0375 0 0.1525 0.0425 0 0.1525 0.0475 0 0.1525 0.0525 0 0.1525 0.0575 0 0.1525 0.0625 0 0.1525 0.0675 0 0.1525 0.0725 0 0.1525 0.0775 0 0.1525 0.0825 0 0.1525 0.0875 0 0.1525 0.0925 0 0.1525 0.0975 0 0.1575 0.0025 0 0.1575 0.0075 0 0.1575 0.0125 0 0.1575 0.0175 0 0.1575 0.0225 0 0.1575 0.0275 0 0.1575 0.0325 0 0.1575 0.0375 0 0.1575 0.0425 0 0.1575 0.0475 0 0.1575 0.0525 0 0.1575 0.0575 0 0.1575 0.0625 0 0.1575 0.0675 0 0.1575 0.0725 0 0.1575 0.0775 0 0.1575 0.0825 0 0.1575 0.0875 0 0.1575 0.0925 0 0.1575 0.0975 0 0.1625 0.0025 0 0.1625 0.0075 0 0.1625 0.0125 0 0.1625 0.0175 0 0.1625 0.0225 0 0.1625 0.0275 0 0.1625 0.0325 0 0.1625 0.0375 0 0.1625 0.0425 0 0.1625 0.0475 0 0.1625 0.0525 0 0.1625 0.0575 0 0.1625 0.0625 0 0.1625 0.0675 0 0.1625 0.0725 0 0.1625 0.0775 0 0.1625 0.0825 0 0.1625 0.0875 0 0.1625 0.0925 0 0.1625 0.0975 0 0.1675 0.0025 0 0.1675 0.0075 0 0.1675 0.0125 0 0.1675 0.0175 0 0.1675 0.0225 0 0.1675 0.0275 0 0.1675 0.0325 0 0.1675 0.0375 0 0.1675 0.0425 0 0.1675 0.0475 0 0.1675 0.0525 0 0.1675 0.0575 0 0.1675 0.0625 0 0.1675 0.0675 0 0.1675 0.0725 0 0.1675 0.0775 0 0.1675 0.0825 0 0.1675 0.0875 0 0.1675 0.0925 0 0.1675 0.0975 0 0.1725 0.0025 0 0.1725 0.0075 0 0.1725 0.0125 0 0.1725 0.0175 0 0.1725 0.0225 0 0.1725 0.0275 0 0.1725 0.0325 0 0.1725 0.0375 0 0.1725 0.0425 0 0.1725 0.0475 0 0.1725 0.0525 0 0.1725 0.0575 0 0.1725 0.0625 0 0.1725 0.0675 0 0.1725 0.0725 0 0.1725 0.0775 0 0.1725 0.0825 0 0.1725 0.0875 0 0.1725 0.0925 0 0.1725 0.0975 0 0.1775 0.0025 0 0.1775 0.0075 0 0.1775 0.0125 0 0.1775 0.0175 0 0.1775 0.0225 0 0.1775 0.0275 0 0.1775 0.0325 0 0.1775 0.0375 0 0.1775 0.0425 0 0.1775 0.0475 0 0.1775 0.0525 0 0.1775 0.0575 0 0.1775 0.0625 0 0.1775 0.0675 0 0.1775 0.0725 0 0.1775 0.0775 0 0.1775 0.0825 0 0.1775 0.0875 0 0.1775 0.0925 0 0.1775 0.0975 0 0.1825 0.0025 0 0.1825 0.0075 0 0.1825 0.0125 0 0.1825 0.0175 0 0.1825 0.0225 0 0.1825 0.0275 0 0.1825 0.0325 0 0.1825 0.0375 0 0.1825 0.0425 0 0.1825 0.0475 0 0.1825 0.0525 0 0.1825 0.0575 0 0.1825 0.0625 0 0.1825 0.0675 0 0.1825 0.0725 0 0.1825 0.0775 0 0.1825 0.0825 0 0.1825 0.0875 0 0.1825 0.0925 0 0.1825 0.0975 0 0.1875 0.0025 0 0.1875 0.0075 0 0.1875 0.0125 0 0.1875 0.0175 0 0.1875 0.0225 0 0.1875 0.0275 0 0.1875 0.0325 0 0.1875 0.0375 0 0.1875 0.0425 0 0.1875 0.0475 0 0.1875 0.0525 0 0.1875 0.0575 0 0.1875 0.0625 0 0.1875 0.0675 0 0.1875 0.0725 0 0.1875 0.0775 0 0.1875 0.0825 0 0.1875 0.0875 0 0.1875 0.0925 0 0.1875 0.0975 0 0.1925 0.0025 0 0.1925 0.0075 0 0.1925 0.0125 0 0.1925 0.0175 0 0.1925 0.0225 0 0.1925 0.0275 0 0.1925 0.0325 0 0.1925 0.0375 0 0.1925 0.0425 0 0.1925 0.0475 0 0.1925 0.0525 0 0.1925 0.0575 0 0.1925 0.0625 0 0.1925 0.0675 0 0.1925 0.0725 0 0.1925 0.0775 0 0.1925 0.0825 0 0.1925 0.0875 0 0.1925 0.0925 0 0.1925 0.0975 0 0.1975 0.0025 0 0.1975 0.0075 0 0.1975 0.0125 0 0.1975 0.0175 0 0.1975 0.0225 0 0.1975 0.0275 0 0.1975 0.0325 0 0.1975 0.0375 0 0.1975 0.0425 0 0.1975 0.0475 0 0.1975 0.0525 0 0.1975 0.0575 0 0.1975 0.0625 0 0.1975 0.0675 0 0.1975 0.0725 0 0.1975 0.0775 0 0.1975 0.0825 0 0.1975 0.0875 0 0.1975 0.0925 0 0.1975 0.0975 0 
    </DataArray>
   </Points>
   <PointData  Vectors="vector">
    <DataArray Name="SortedParticle_ID" type="Int32" Format="ascii">
    0 1 2 3 4 5 6 7 8 9 10 11 12 13 14 15 16 17 18 19 20 21 22 23 24 25 26 27 28 29 30 31 32 33 34 35 36 37 38 39 40 41 42 43 44 45 46 47 48 49 50 51 52 53 54 55 56 57 58 59 60 61 62 63 64 65 66 67 68 69 70 71 72 73 74 75 76 77 78 79 80 81 82 83 84 85 86 87 88 89 90 91 92 93 94 95 96 97 98 99 100 101 102 103 104 105 106 107 108 109 110 111 112 113 114 115 116 117 118 119 120 121 122 123 124 125 126 127 128 129 130 131 132 133 134 135 136 137 138 139 140 141 142 143 144 145 146 147 148 149 150 151 152 153 154 155 156 157 158 159 160 161 162 163 164 165 166 167 168 169 170 171 172 173 174 175 176 177 178 179 180 181 182 183 184 185 186 187 188 189 190 191 192 193 194 195 196 197 198 199 200 201 202 203 204 205 206 207 208 209 210 211 212 213 214 215 216 217 218 219 220 221 222 223 224 225 226 227 228 229 230 231 232 233 234 235 236 237 238 239 240 241 242 243 244 245 246 247 248 249 250 251 252 253 254 255 256 257 258 259 260 261 262 263 264 265 266 267 268 269 270 271 272 273 274 275 276 277 278 279 280 281 282 283 284 285 286 287 288 289 290 291 292 293 294 295 296 297 298 299 300 301 302 303 304 305 306 307 308 309 310 311 312 313 314 315 316 317 318 319 320 321 322 323 324 325 326 327 328 329 330 331 332 333 334 335 336 337 338 339 340 341 342 343 344 345 346 347 348 349 350 351 352 353 354 355 356 357 358 359 360 361 362 363 364 365 366 367 368 369 370 371 372 373 374 375 376 377 378 379 380 381 382 383 384 385 386 387 388 389 390 391 392 393 394 395 396 397 398 399 400 401 402 403 404 405 406 407 408 409 410 411 412 413 414 415 416 417 418 419 420 421 422 423 424 425 426 427 428 429 430 431 432 433 434 435 436 437 438 439 440 441 442 443 444 445 446 447 448 449 450 451 452 453 454 455 456 457 458 459 460 461 462 463 464 465 466 467 468 469 470 471 472 473 474 475 476 477 478 479 480 481 482 483 484 485 486 487 488 489 490 491 492 493 494 495 496 497 498 499 500 501 502 503 504 505 506 507 508 509 510 511 512 513 514 515 516 517 518 519 520 521 522 523 524 525 526 527 528 529 530 531 532 533 534 535 536 537 538 539 540 541 542 543 544 545 546 547 548 549 550 551 552 553 554 555 556 557 558 559 560 561 562 563 564 565 566 567 568 569 570 571 572 573 574 575 576 577 578 579 580 581 582 583 584 585 586 587 588 589 590 591 592 593 594 595 596 597 598 599 600 601 602 603 604 605 606 607 608 609 610 611 612 613 614 615 616 617 618 619 620 621 622 623 624 625 626 627 628 629 630 631 632 633 634 635 636 637 638 639 640 641 642 643 644 645 646 647 648 649 650 651 652 653 654 655 656 657 658 659 660 661 662 663 664 665 666 667 668 669 670 671 672 673 674 675 676 677 678 679 680 681 682 683 684 685 686 687 688 689 690 691 692 693 694 695 696 697 698 699 700 701 702 703 704 705 706 707 708 709 710 711 712 713 714 715 716 717 718 719 720 721 722 723 724 725 726 727 728 729 730 731 732 733 734 735 736 737 738 739 740 741 742 743 744 745 746 747 748 749 750 751 752 753 754 755 756 757 758 759 760 761 762 763 764 765 766 767 768 769 770 771 772 773 774 775 776 777 778 779 780 781 782 783 784 785 786 787 788 789 790 791 792 793 794 795 796 797 798 799 
    </DataArray>
    <DataArray Name="OriginalParticle_ID" type="Int32" Format="ascii">
    0 1 2 3 4 5 6 7 8 9 10 11 12 13 14 15 16 17 18 19 20 21 22 23 24 25 26 27 28 29 30 31 32 33 34 35 36 37 38 39 40 41 42 43 44 45 46 47 48 49 50 51 52 53 54 55 56 57 58 59 60 61 62 63 64 65 66 67 68 69 70 71 72 73 74 75 76 77 78 79 80 81 82 83 84 85 86 87 88 89 90 91 92 93 94 95 96 97 98 99 100 101 102 103 104 105 106 107 108 109 110 111 112 113 114 115 116 117 118 119 120 121 122 123 124 125 126 127 128 129 130 131 132 133 134 135 136 137 138 139 140 141 142 143 144 145 146 147 148 149 150 151 152 153 154 155 156 157 158 159 160 161 162 163 164 165 166 167 168 169 170 171 172 173 174 175 176 177 178 179 180 181 182 183 184 185 186 187 188 189 190 191 192 193 194 195 196 197 198 199 200 201 202 203 204 205 206 207 208 209 210 211 212 213 214 215 216 217 218 219 220 221 222 223 224 225 226 227 228 229 230 231 232 233 234 235 236 237 238 239 240 241 242 243 244 245 246 247 248 249 250 251 252 253 254 255 256 257 258 259 260 261 262 263 264 265 266 267 268 269 270 271 272 273 274 275 276 277 278 279 280 281 282 283 284 285 286 287 288 289 290 291 292 293 294 295 296 297 298 299 300 301 302 303 304 305 306 307 308 309 310 311 312 313 314 315 316 317 318 319 320 321 322 323 324 325 326 327 328 329 330 331 332 333 334 335 336 337 338 339 340 341 342 343 344 345 346 347 348 349 350 351 352 353 354 355 356 357 358 359 360 361 362 363 364 365 366 367 368 369 370 371 372 373 374 375 376 377 378 379 380 381 382 383 384 385 386 387 388 389 390 391 392 393 394 395 396 397 398 399 400 401 402 403 404 405 406 407 408 409 410 411 412 413 414 415 416 417 418 419 420 421 422 423 424 425 426 427 428 429 430 431 432 433 434 435 436 437 438 439 440 441 442 443 444 445 446 447 448 449 450 451 452 453 454 455 456 457 458 459 460 461 462 463 464 465 466 467 468 469 470 471 472 473 474 475 476 477 478 479 480 481 482 483 484 485 486 487 488 489 490 491 492 493 494 495 496 497 498 499 500 501 502 503 504 505 506 507 508 509 510 511 512 513 514 515 516 517 518 519 520 521 522 523 524 525 526 527 528 529 530 531 532 533 534 535 536 537 538 539 540 541 542 543 544 545 546 547 548 549 550 551 552 553 554 555 556 557 558 559 560 561 562 563 564 565 566 567 568 569 570 571 572 573 574 575 576 577 578 579 580 581 582 583 584 585 586 587 588 589 590 591 592 593 594 595 596 597 598 599 600 601 602 603 604 605 606 607 608 609 610 611 612 613 614 615 616 617 618 619 620 621 622 623 624 625 626 627 628 629 630 631 632 633 634 635 636 637 638 639 640 641 642 643 644 645 646 647 648 649 650 651 652 653 654 655 656 657 658 659 660 661 662 663 664 665 666 667 668 669 670 671 672 673 674 675 676 677 678 679 680 681 682 683 684 685 686 687 688 689 690 691 692 693 694 695 696 697 698 699 700 701 702 703 704 705 706 707 708 709 710 711 712 713 714 715 716 717 718 719 720 721 722 723 724 725 726 727 728 729 730 731 732 733 734 735 736 737 738 739 740 741 742 743 744 745 746 747 748 749 750 751 752 753 754 755 756 757 758 759 760 761 762 763 764 765 766 767 768 769 770 771 772 773 774 775 776 777 778 779 780 781 782 783 784 785 786 787 788 789 790 791 792 793 794 795 796 797 798 799 
    </DataArray>
    <DataArray Name="ParticleIndex" type="Int32" Format="ascii">
    0 1 2 3 4 5 6 7 8 9 10 11 12 13 14 15 16 17 18 19 20 40 60 21 22 23 41 42 43 61 62 63 24 25 44 45 64 65 26 27 28 46 47 48 66 67 68 29 30 31 49 50 51 69 70 71 32 33 52 53 72 73 34 35 36 54 55 56 74 75 76 37 38 57 58 77 78 39 59 79 100 80 101 102 103 81 82 83 104 105 84 85 106 107 108 86 87 88 109 110 111 89 90 91 112 113 92 93 114 115 116 94 95 96 117 118 97 98 119 99 160 120 140 161 162 163 121 122 123 141 142 143 164 165 124 125 144 145 166 167 168 126 127 128 146 147 148 150 151 169 170 171 129 130 131 149 152 153 172 173 132 133 154 155 156 174 175 176 134 135 136 157 158 177 178 137 138 159 179 139 200 220 180 201 202 203 221 222 223 181 182 183 204 205 224 225 184 185 206 207 208 226 227 228 186 187 188 209 210 211 229 230 231 189 190 191 212 213 232 233 192 193 214 215 216 234 235 236 194 195 196 217 218 237 238 197 198 219 239 199 240 260 241 242 243 261 262 263 244 245 264 265 246 247 248 266 267 268 249 250 251 269 270 271 252 253 272 273 254 255 256 274 275 276 257 258 277 278 259 279 300 280 320 301 302 303 281 282 321 283 322 323 304 305 284 285 324 325 306 307 308 286 287 326 288 327 328 309 310 311 289 290 329 291 330 331 312 313 292 293 332 333 314 315 316 294 295 334 296 335 336 317 318 297 298 337 338 319 299 339 360 340 361 362 363 341 342 343 364 365 344 345 366 367 368 346 347 348 350 351 369 370 371 349 352 353 372 373 354 355 356 374 375 376 357 358 377 378 359 379 400 420 380 401 402 403 421 422 423 381 382 383 404 405 424 425 384 385 406 407 408 426 427 428 387 388 386 409 410 411 429 430 431 389 390 391 412 413 432 433 392 393 414 415 416 434 435 436 394 395 396 417 418 437 438 397 398 419 439 399 440 460 480 441 442 443 461 462 463 481 482 483 444 445 464 465 484 485 446 447 448 466 467 468 487 488 486 449 450 451 469 470 471 489 490 491 452 453 472 473 492 493 454 455 456 474 475 476 494 495 496 457 458 477 478 497 498 459 479 499 500 520 501 502 503 521 522 523 504 505 524 525 506 507 508 526 527 528 509 510 511 529 530 531 512 513 532 533 514 515 516 534 535 536 517 518 537 538 519 539 540 560 580 541 542 543 561 562 563 581 582 583 544 545 564 565 584 585 546 547 548 566 567 568 586 587 588 549 550 551 569 570 571 589 590 591 552 553 572 573 592 593 554 555 556 574 575 576 594 595 596 557 558 577 578 597 598 559 579 599 600 620 601 602 603 621 622 623 604 605 624 625 606 607 608 626 627 628 609 610 611 629 630 631 612 613 632 633 614 615 616 634 635 636 617 618 637 638 619 639 640 660 680 641 642 643 661 662 663 681 682 683 644 645 664 665 684 685 646 647 648 666 667 668 686 687 688 649 650 651 669 670 671 689 690 691 652 653 672 673 692 693 654 655 656 674 675 676 694 695 696 657 658 677 678 697 698 659 679 699 700 720 740 701 702 703 721 722 723 741 742 743 704 705 724 725 744 745 706 707 708 726 727 728 746 747 748 709 710 711 729 730 731 749 750 751 712 713 732 733 752 753 714 715 716 734 735 736 754 755 756 717 718 737 738 757 758 719 739 759 760 780 761 762 763 781 782 783 764 765 784 785 766 767 768 787 788 786 769 770 771 789 790 791 772 773 793 792 774 775 776 794 795 796 777 778 797 798 779 799 
    </DataArray>
    <DataArray Name="ParticleOffset" type="Int32" Format="ascii">
    0 7 17 29 41 53 65 77 89 101 113 125 137 149 161 173 185 197 209 219 226 236 250 267 284 301 318 335 352 369 386 403 420 437 454 471 488 505 522 536 546 558 575 595 615 635 655 675 695 715 735 755 775 795 815 835 855 875 895 912 924 936 953 973 993 1013 1033 1053 1073 1093 1113 1133 1153 1173 1193 1213 1233 1253 1273 1290 1302 1314 1331 1351 1371 1391 1411 1431 1451 1471 1491 1511 1531 1551 1571 1591 1611 1631 1651 1668 1680 1692 1709 1729 1749 1769 1789 1809 1829 1849 1869 1889 1909 1929 1949 1969 1989 2009 2029 2046 2058 2070 2087 2107 2127 2147 2167 2187 2207 2227 2247 2267 2287 2307 2327 2347 2367 2387 2407 2424 2436 2448 2465 2485 2505 2525 2545 2565 2585 2605 2625 2645 2665 2685 2705 2725 2745 2765 2785 2802 2814 2826 2843 2863 2883 2903 2923 2943 2963 2983 3003 3023 3043 3063 3083 3103 3123 3143 3163 3180 3192 3204 3221 3241 3261 3281 3301 3321 3341 3361 3381 3401 3421 3441 3461 3481 3501 3521 3541 3558 3570 3582 3599 3619 3639 3659 3679 3699 3719 3739 3759 3779 3799 3819 3839 3859 3879 3899 3919 3936 3948 3960 3977 3997 4017 4037 4057 4077 4097 4117 4137 4157 4177 4197 4217 4237 4257 4277 4297 4314 4326 4338 4355 4375 4395 4415 4435 4455 4475 4495 4515 4535 4555 4575 4595 4615 4635 4655 4675 4692 4704 4716 4733 4753 4773 4793 4813 4833 4853 4873 4893 4913 4933 4953 4973 4993 5013 5033 5053 5070 5082 5094 5111 5131 5151 5171 5191 5211 5231 5251 5271 5291 5311 5331 5351 5371 5391 5411 5431 5448 5460 5472 5489 5509 5529 5549 5569 5589 5609 5629 5649 5669 5689 5709 5729 5749 5769 5789 5809 5826 5838 5850 5867 5887 5907 5927 5947 5967 5987 6007 6027 6047 6067 6087 6107 6127 6147 6167 6187 6204 6216 6228 6245 6265 6285 6305 6325 6345 6365 6385 6405 6425 6445 6465 6485 6505 6525 6545 6565 6582 6594 6606 6623 6643 6663 6683 6703 6723 6743 6763 6783 6803 6823 6843 6863 6883 6903 6923 6943 6960 6972 6984 7001 7021 7041 7061 7081 7101 7121 7141 7161 7181 7201 7221 7241 7261 7281 7301 7321 7338 7350 7362 7379 7399 7419 7439 7459 7479 7499 7519 7539 7559 7579 7599 7619 7639 7659 7679 7699 7716 7728 7740 7757 7777 7797 7817 7837 7857 7877 7897 7917 7937 7957 7977 7997 8017 8037 8057 8077 8094 8106 8118 8135 8155 8175 8195 8215 8235 8255 8275 8295 8315 8335 8355 8375 8395 8415 8435 8455 8472 8484 8496 8513 8533 8553 8573 8593 8613 8633 8653 8673 8693 8713 8733 8753 8773 8793 8813 8833 8850 8862 8874 8891 8911 8931 8951 8971 8991 9011 9031 9051 9071 9091 9111 9131 9151 9171 9191 9211 9228 9240 9252 9269 9289 9309 9329 9349 9369 9389 9409 9429 9449 9469 9489 9509 9529 9549 9569 9589 9606 9618 9630 9647 9667 9687 9707 9727 9747 9767 9787 9807 9827 9847 9867 9887 9907 9927 9947 9967 9984 9996 10008 10025 10045 10065 10085 10105 10125 10145 10165 10185 10205 10225 10245 10265 10285 10305 10325 10345 10362 10374 10386 10403 10423 10443 10463 10483 10503 10523 10543 10563 10583 10603 10623 10643 10663 10683 10703 10723 10740 10752 10764 10781 10801 10821 10841 10861 10881 10901 10921 10941 10961 10981 11001 11021 11041 11061 11081 11101 11118 11130 11142 11159 11179 11199 11219 11239 11259 11279 11299 11319 11339 11359 11379 11399 11419 11439 11459 11479 11496 11508 11520 11537 11557 11577 11597 11617 11637 11657 11677 11697 11717 11737 11757 11777 11797 11817 11837 11857 11874 11886 11898 11915 11935 11955 11975 11995 12015 12035 12055 12075 12095 12115 12135 12155 12175 12195 12215 12235 12252 12264 12276 12293 12313 12333 12353 12373 12393 12413 12433 12453 12473 12493 12513 12533 12553 12573 12593 12613 12630 12642 12654 12671 12691 12711 12731 12751 12771 12791 12811 12831 12851 12871 12891 12911 12931 12951 12971 12991 13008 13020 13032 13049 13069 13089 13109 13129 13149 13169 13189 13209 13229 13249 13269 13289 13309 13329 13349 13369 13386 13398 13410 13427 13447 13467 13487 13507 13527 13547 13567 13587 13607 13627 13647 13667 13687 13707 13727 13747 13764 13776 13788 13805 13825 13845 13865 13885 13905 13925 13945 13965 13985 14005 14025 14045 14065 14085 14105 14125 14142 14154 14164 14178 14195 14212 14229 14246 14263 14280 14297 14314 14331 14348 14365 14382 14399 14416 14433 14450 14464 14474 14481 14491 14503 14515 14527 14539 14551 14563 14575 14587 14599 14611 14623 14635 14647 14659 14671 14683 14693 
    </DataArray>
    <DataArray Name="ContactWallBoundaryParticleOffset" type="Int32" Format="ascii">