<?xml version="1.0"?>
<VTKFile type="PolyData" version="0.1" byte_order="LittleEndian">
 <PolyData>
  <Piece Name ="SoilBlock" NumberOfPoints="250" NumberOfVerts="250">
   <Points>
    <DataArray Name="Position" type="Float32"  NumberOfComponents="3" Format="ascii">
    1.71104 0.511108 0 1.69005 0.509767 0 1.74998 0.508876 0 1.73087 0.509364 0 1.74881 0.534015 0 1.72732 0.529351 0 1.79338 0.508778 0 1.77297 0.508243 0 1.83471 0.509175 0 1.81477 0.508954 0 1.79106 0.552634 0 1.80332 0.528098 0 1.76449 0.527774 0 1.78506 0.53093 0 1.77064 0.549476 0 1.81105 0.548404 0 1.84285 0.529293 0 1.82366 0.530347 0 1.8308 0.550794 0 1.85546 0.508961 0 1.87566 0.509271 0 1.89598 0.509162 0 1.93582 0.509355 0 1.91595 0.509581 0 1.89367 0.549294 0 1.86242 0.529852 0 1.85234 0.549348 0 1.87214 0.550214 0 1.88198 0.529581 0 1.93345 0.549155 0 1.9126 0.550199 0 1.902 0.529501 0 1.94258 0.529654 0 1.92209 0.529689 0 1.97546 0.509423 0 1.95568 0.509613 0 1.99494 0.510011 0 2.03309 0.510839 0 2.01463 0.509325 0 1.96257 0.529612 0 1.98339 0.530034 0 1.97356 0.548445 0 1.95242 0.550394 0 2.03093 0.553614 0 2.02552 0.530935 0 2.00361 0.529272 0 2.01318 0.546717 0 1.9921 0.551414 0 2.0713 0.512103 0 2.05317 0.508315 0 2.0914 0.507412 0 2.11001 0.512744 0 2.06822 0.532784 0 2.07102 0.55355 0 2.04638 0.528136 0 2.05039 0.545518 0 2.09066 0.54607 0 2.08834 0.527249 0 2.10986 0.533031 0 2.11088 0.552828 0 2.1288 0.507495 0 2.16601 0.50815 0 2.14812 0.512371 0 2.18648 0.510703 0 2.20548 0.5088 0 2.14834 0.554401 0 2.168 0.545753 0 2.13192 0.546018 0 2.15318 0.531627 0 2.13063 0.5278 0 2.2069 0.547654 0 2.18784 0.553355 0 2.19491 0.531629 0 2.17502 0.528335 0 2.21566 0.52792 0 2.24621 0.508833 0 2.22653 0.509862 0 2.26791 0.509841 0 2.30604 0.510428 0 2.287 0.508878 0 2.25353 0.526363 0 2.22943 0.551426 0 2.25223 0.546867 0 2.23328 0.53302 0 2.30091 0.558856 0 2.27123 0.534164 0 2.2904 0.528075 0 2.29903 0.542104 0 2.2743 0.553173 0 2.34184 0.510471 0 2.32345 0.509962 0 2.39062 0.508954 0 2.36252 0.507835 0 2.34129 0.553913 0 2.32079 0.562523 0 2.34743 0.528647 0 2.32716 0.542358 0 2.31798 0.529631 0 2.35968 0.539494 0 2.37092 0.557473 0 2.37852 0.518113 0 2.38683 0.561097 0 2.39958 0.534266 0 2.37969 0.537118 0 2.39742 0.556643 0 2.41405 0.507218 0 2.441 0.50874 0 2.47694 0.517324 0 2.45904 0.510589 0 2.49465 0.5121 0 2.44633 0.54627 0 2.43219 0.550918 0 2.43796 0.526897 0 2.41872 0.520792 0 2.41517 0.539537 0 2.41678 0.561497 0 2.48771 0.546263 0 2.47171 0.538138 0 2.45949 0.540186 0 2.51564 0.512518 0 2.53508 0.512339 0 2.57768 0.510946 0 2.55576 0.51168 0 2.51629 0.536235 0 2.5323 0.54331 0 2.50122 0.537895 0 2.5722 0.543412 0 2.56381 0.532333 0 2.54476 0.536412 0 2.61873 0.510652 0 2.59768 0.511178 0 2.64302 0.507342 0 2.6728 0.511529 0 2.59099 0.534745 0 2.6087 0.539364 0 2.62343 0.531721 0 2.66609 0.533645 0 2.63795 0.536241 0 2.65115 0.525501 0 2.69658 0.511972 0 2.72079 0.51214 0 2.74474 0.510862 0 2.77022 0.50939 0 2.68233 0.538688 0 2.72454 0.535663 0 2.70301 0.534312 0 2.77046 0.531872 0 2.74773 0.533533 0 1.82905 0.573689 0 1.80813 0.568175 0 1.84608 0.567814 0 1.84992 0.58908 0 1.87099 0.593705 0 1.88466 0.567005 0 1.86612 0.572582 0 1.88861 0.607953 0 1.88993 0.58659 0 1.90584 0.572316 0 1.92452 0.56767 0 1.93064 0.586439 0 1.92762 0.605604 0 1.90906 0.592825 0 1.92908 0.627878 0 1.91011 0.614066 0 1.9455 0.572148 0 1.98959 0.593222 0 1.98613 0.572286 0 1.95049 0.593014 0 1.96697 0.604986 0 1.96472 0.567029 0 1.9706 0.585525 0 2.02958 0.595295 0 2.00558 0.56661 0 2.02715 0.572444 0 2.0055 0.603606 0 2.01129 0.584716 0 1.98848 0.614295 0 1.94639 0.613994 0 1.95136 0.634191 0 1.96822 0.646694 0 1.98733 0.634303 0 1.96888 0.6238 0 2.02867 0.61258 0 2.02576 0.636715 0 1.99315 0.654536 0 2.01087 0.622753 0 2.00374 0.642657 0 2.01918 0.656598 0 2.06708 0.57455 0 2.07296 0.594946 0 2.05323 0.600793 0 2.05053 0.565013 0 2.04645 0.584066 0 2.09194 0.603974 0 2.08865 0.583613 0 2.08958 0.565342 0 2.12257 0.603984 0 2.10971 0.573815 0 2.12773 0.567134 0 2.11117 0.59206 0 2.04424 0.62508 0 2.06257 0.615319 0 2.06067 0.645458 0 2.06789 0.63459 0 2.03972 0.643152 0 2.0823 0.621245 0 2.08911 0.638589 0 2.10749 0.617465 0 2.12696 0.632382 0 2.10145 0.633784 0 2.15021 0.597234 0 2.17225 0.565789 0 2.16895 0.604903 0 2.13557 0.585017 0 2.15234 0.572974 0 2.16974 0.584075 0 2.18744 0.594168 0 2.19516 0.572465 0 2.21601 0.565813 0 2.20527 0.585951 0 2.20639 0.606776 0 2.14149 0.624297 0 2.14106 0.614034 0 2.16481 0.624411 0 2.17686 0.6206 0 2.19029 0.618314 0 2.25097 0.564454 0 2.23135 0.574811 0 2.25881 0.597651 0 2.26039 0.577945 0 2.22989 0.599408 0 2.2349 0.589749 0 2.29972 0.585458 0 2.26834 0.594458 0 2.28665 0.587072 0 2.28286 0.567714 0 2.22483 0.612191 0 2.33145 0.582309 0 2.31403 0.579447 0 2.34655 0.570921 0 2.36179 0.567719 0 2.80121 0.50641 0 2.83365 0.515374 0 2.85683 0.517677 0 2.79107 0.525307 0 2.81439 0.526499 0 2.87735 0.5111 0 2.94103 0.508494 0 2.91263 0.507265 0 2.89801 0.521806 0 
    </DataArray>
   </Points>
   <PointData  Vectors="vector">
    <DataArray Name="SortedParticle_ID" type="Int32" Format="ascii">
    0 1 2 3 4 5 6 7 8 9 10 11 12 13 14 15 16 17 18 19 20 21 22 23 24 25 26 27 28 29 30 31 32 33 34 35 36 37 38 39 40 41 42 43 44 45 46 47 48 49 50 51 52 53 54 55 56 57 58 59 60 61 62 63 64 65 66 67 68 69 70 71 72 73 74 75 76 77 78 79 80 81 82 83 84 85 86 87 88 89 90 91 92 93 94 95 96 97 98 99 100 101 102 103 104 105 106 107 108 109 110 111 112 113 114 115 116 117 118 119 120 121 122 123 124 125 126 127 128 129 130 131 132 133 134 135 136 137 138 139 140 141 142 143 144 145 146 147 148 149 150 151 152 153 154 155 156 157 158 159 160 161 162 163 164 165 166 167 168 169 170 171 172 173 174 175 176 177 178 179 180 181 182 183 184 185 186 187 188 189 190 191 192 193 194 195 196 197 198 199 200 201 202 203 204 205 206 207 208 209 210 211 212 213 214 215 216 217 218 219 220 221 222 223 224 225 226 227 228 229 230 231 232 233 234 235 236 237 238 239 240 241 242 243 244 245 246 247 248 249 
    </DataArray>
    <DataArray Name="OriginalID" type="Int32" Format="ascii">
    1 0 4 2 5 3 9 6 16 12 11 13 7 10 8 14 21 17 18 20 25 30 42 36 32 26 22 27 31 44 38 37 50 43 56 49 64 81 72 57 65 58 51 83 82 73 74 66 100 90 110 120 101 102 91 92 112 111 121 122 130 150 140 160 169 142 152 132 141 131 171 162 161 151 170 186 178 194 208 201 187 180 188 179 210 195 202 203 196 220 214 230 225 227 217 215 216 209 221 191 226 211 235 231 222 234 241 138 242 183 165 156 236 238 232 129 139 205 175 157 167 212 184 148 149 147 158 228 198 239 223 244 218 159 168 176 206 192 199 200 213 233 240 177 193 185 219 207 19 15 23 24 29 33 28 35 34 39 45 46 47 40 48 41 52 68 67 53 61 59 60 85 75 84 77 76 69 54 55 63 70 62 86 87 71 78 79 80 103 104 95 93 94 115 114 113 135 123 133 124 96 105 89 97 88 116 98 125 99 106 144 153 155 134 143 154 164 163 172 173 136 107 145 108 126 117 189 181 118 197 174 182 146 127 190 204 109 119 166 128 137 246 237 243 224 229 245 249 248 247 
    </DataArray>
    <DataArray Name="ErodedLabel" type="Int32" Format="ascii">
    0 0 1 0 0 0 0 0 0 0 0 0 0 0 0 0 0 0 0 0 0 0 0 0 0 0 0 0 0 0 0 0 0 0 0 0 0 0 0 0 0 0 0 0 0 0 0 0 0 0 0 0 0 0 0 0 0 0 0 0 0 0 0 0 0 0 0 0 0 0 0 0 0 0 0 0 0 0 0 0 0 0 0 0 1 0 0 0 0 0 0 0 0 1 1 0 0 0 1 1 0 1 1 1 1 0 0 1 1 1 1 1 1 0 1 1 1 1 1 1 1 1 1 1 1 1 1 1 1 1 0 1 1 1 1 1 1 1 1 1 0 1 1 1 1 1 1 1 0 0 0 0 0 0 0 0 0 0 0 0 0 0 0 0 0 0 0 0 0 0 0 0 0 0 0 0 0 0 0 0 0 0 0 1 1 0 1 1 0 0 0 0 0 1 0 0 1 0 0 0 1 1 1 1 1 1 1 1 1 1 1 0 1 0 0 0 1 0 0 1 1 1 1 1 1 1 1 1 1 1 1 1 1 1 1 1 1 1 1 1 1 1 0 0 0 1 1 1 1 1 
    </DataArray>
    <DataArray Name="Indicator" type="Int32" Format="ascii">
    1 1 0 1 1 1 0 0 0 0 1 0 1 1 1 1 0 0 1 0 0 0 0 0 0 0 0 0 0 0 0 0 0 0 0 0 0 0 0 0 0 0 0 0 0 0 0 0 0 0 0 0 0 0 0 0 0 0 0 0 0 0 0 0 0 0 0 0 0 0 0 0 0 0 0 0 0 0 0 0 0 0 0 0 0 0 0 0 0 0 0 0 0 1 1 0 0 0 0 1 0 1 0 0 1 0 0 1 0 0 1 1 1 0 1 1 1 1 1 0 0 0 1 1 1 1 1 1 1 1 0 1 0 1 1 1 1 1 1 0 0 1 1 1 1 1 1 1 1 1 1 1 1 0 1 1 1 0 0 0 1 1 1 1 0 0 0 0 0 0 0 0 0 0 0 0 0 1 1 1 1 1 0 1 1 0 1 1 0 0 0 0 0 0 0 0 0 0 0 0 1 0 1 1 1 1 1 1 1 1 0 0 1 0 0 0 0 0 0 0 1 1 1 1 1 1 0 0 1 1 1 1 1 1 1 0 1 1 1 1 1 1 1 1 1 1 1 1 1 1 
    </DataArray>
    <DataArray Name="VerticalStress" type="Float32" Format="ascii">
    -881.662186018 -398.776645841 -977.124311954 -858.450416651 -249.267286236 -341.083165837 -1865.405773319 -1638.637691961 -1766.445706916 -1825.077769686 -242.001956266 -961.385979722 -589.950980064 -582.516752388 -118.304202453 -527.298598548 -1813.197901996 -1400.708903519 -976.148282202 -1904.129035646 -2141.417318117 -2412.396736148 -2788.158752967 -2613.765724198 -1590.343839013 -1912.405286410 -1403.003980757 -1420.445411366 -1854.340036913 -1808.353274364 -1780.325408947 -1918.791002668 -2199.653317203 -2071.168091079 -2918.103545034 -2910.152156165 -2967.552470925 -2950.937639799 -2892.117330127 -2370.013552328 -2574.507607380 -1949.811403032 -1747.142025473 -2111.409661280 -2558.297194168 -2705.264293475 -2254.583408322 -2103.191764230 -2821.501214449 -2879.659754293 -3008.579057215 -2845.568907437 -2578.424784735 -2087.732857888 -2561.754807540 -2380.865154111 -2116.494005150 -2530.588863436 -2312.431670456 -1995.608593463 -2865.096511317 -2674.589520837 -2597.684850824 -2531.684480478 -2492.600258172 -1884.810701482 -1645.032835804 -2086.787194328 -2163.629660084 -2464.317020875 -1880.419275774 -1352.917135911 -2024.307627813 -1901.135332095 -2186.340645480 -2516.376468110 -2379.568822907 -2297.992821244 -1835.989366417 -2061.727291295 -1942.441026683 -1479.084949934 -1320.879539811 -1684.282226411 -737.930290346 -1723.939443481 -1809.580517353 -1274.278326662 -1344.182686710 -1926.227652745 -1857.486163638 -1479.207776645 -1816.536282528 -175.484657576 -790.989556595 -1692.963855644 -1458.044875717 -1289.486475936 -800.761013830 -482.891669649 -1324.564233146 -84.965292236 -1121.279578934 -981.764506878 -235.066484018 -1406.913811618 -1647.976892933 -1231.343835236 -1237.128648444 -1370.208920877 -192.129536034 -314.453563916 -892.574606693 -874.334661606 -465.800286968 -279.113531278 -318.678596051 -189.680759736 -454.464581654 -1271.244989387 -1139.548516338 -1067.464890452 -1292.337427270 -351.286806734 -292.843771559 -334.190231942 -181.979719974 -408.235928584 -341.668211366 -1082.833846912 -998.757710189 -1067.013396235 -1230.000192401 -554.830270339 -224.616030288 -453.373135590 -75.231665281 -55.007976120 -695.466826359 -1047.902667326 -1056.979472266 -919.352039223 -906.939954999 -360.415577182 -305.730893416 -319.530028836 -338.501549930 -405.961897783 -272.679478430 -286.272164977 -537.351734601 -116.792295079 -174.272949228 -998.102592950 -487.887543608 -214.748244571 -514.445584770 -1430.383953786 -1712.293207096 -1322.001335174 -426.497638125 -722.029216704 -30.344154540 -119.223066527 -1639.184784054 -1741.090272013 -1601.484577138 -1262.791372777 -1262.649982059 -1604.371043279 -1635.923116670 -1162.659080979 -1624.249535796 -1616.205023573 -1305.987662190 -1395.397757137 -1153.856270745 -380.222442739 -5.517166532 33.296915417 -588.454474284 -471.962883788 -1148.188831512 -244.292553923 141.739693676 -1039.007595712 -317.971928248 -264.592880522 -1752.375115923 -1123.436473748 -1160.576501758 -1938.304372463 -1404.510565143 -993.467566341 -1300.734515524 -1715.780902896 -476.835560371 -1442.161019228 -1823.614996107 -1094.284217062 -830.974463633 -856.300169562 -187.441239192 -132.050118567 -101.725651811 -809.646094870 -51.831383649 -639.547892454 -219.926533573 -50.210698042 -1014.488459268 -1247.996597015 -836.154339375 -1251.624408186 -1354.056694552 -1270.880811083 -920.762201178 -1426.734504521 -1227.628856269 -441.034703395 -447.091571195 95.677691385 -785.170205065 32.405490445 4.085403224 -64.804077586 -1335.108141423 -1142.498853270 -5.571171397 -786.651962626 -423.427794434 -459.660786470 -201.549867018 -104.103542762 -180.932236126 -668.116416282 -154.165446407 -123.860984313 -176.754661993 -426.606365733 -190.135078999 -793.345963233 -1002.503297034 -591.623821416 -472.277231051 -368.907858540 -717.798503455 -404.790153132 -527.053329057 -422.853761624 
    </DataArray>
    <DataArray Name="FrictionAngle" type="Float32" Format="ascii">
    0.523598776 0.523598776 0.009705040 0.523598776 0.523598776 0.523598776 0.523598776 0.523598776 0.523598776 0.523598776 0.523598776 0.523598776 0.523598776 0.523598776 0.523598776 0.523598776 0.523598776 0.523598776 0.523598776 0.523598776 0.523598776 0.523598776 0.523598776 0.523598776 0.523598776 0.523598776 0.523598776 0.523598776 0.523598776 0.523598776 0.523598776 0.523598776 0.523598776 0.523598776 0.523598776 0.523598776 0.523598776 0.523598776 0.523598776 0.523598776 0.523598776 0.523598776 0.523598776 0.523598776 0.523598776 0.523598776 0.523598776 0.523598776 0.523598776 0.523598776 0.523598776 0.523598776 0.523598776 0.523598776 0.523598776 0.523598776 0.523598776 0.523598776 0.523598776 0.523598776 0.523598776 0.523598776 0.523598776 0.523598776 0.523598776 0.523598776 0.523598776 0.523598776 0.523598776 0.523598776 0.523598776 0.523598776 0.523598776 0.523598776 0.523598776 0.523598776 0.523598776 0.523598776 0.523598776 0.523598776 0.523598776 0.523598776 0.523598776 0.523598776 0.008595271 0.523598776 0.523598776 0.523598776 0.523598776 0.523598776 0.523598776 0.523598776 0.523598776 0.000041265 0.000923394 0.523598776 0.523598776 0.523598776 0.081764454 0.000419713 0.523598776 0.000075022 0.003382320 0.002389785 0.001112476 0.523598776 0.458307299 0.001070876 0.003791505 0.001182428 0.001278113 0.001311051 0.000201121 0.523598776 0.000963868 0.001176516 0.001034134 0.001019496 0.001037684 0.000663667 0.001297871 0.001770160 0.001488428 0.001045816 0.000930955 0.001069485 0.001321113 0.001078769 0.000427342 0.000753695 0.001765714 0.008869520 0.001412949 0.001097932 0.001131568 0.000653803 0.001503161 0.001245505 0.001108443 0.001087827 0.001584503 0.001929691 0.002283653 0.001498823 0.001721201 0.001522166 0.001925280 0.001760370 0.523598776 0.523598776 0.523598776 0.523598776 0.523598776 0.523598776 0.523598776 0.523598776 0.523598776 0.523598776 0.523598776 0.523598776 0.523598776 0.523598776 0.523598776 0.523598776 0.523598776 0.523598776 0.523598776 0.523598776 0.523598776 0.523598776 0.523598776 0.523598776 0.523598776 0.523598776 0.523598776 0.523598776 0.523598776 0.517483171 0.523598776 0.510232067 0.305443172 0.519734867 0.523598776 0.016452077 0.182977116 0.341078390 0.071458862 0.018207669 0.523598776 0.523598776 0.523598776 0.523598776 0.523598776 0.425618373 0.523598776 0.523598776 0.013159584 0.523598776 0.523598776 0.523598776 0.043824956 0.069717648 0.009238068 0.006561281 0.012209099 0.002326607 0.006686693 0.001137197 0.004614181 0.007634233 0.052499225 0.523598776 0.002535118 0.523598776 0.523598776 0.523598776 0.015301948 0.523598776 0.523598776 0.035755627 0.002679832 0.003835621 0.000794675 0.002593051 0.002134185 0.002853115 0.290405863 0.113467731 0.000495819 0.001138696 0.000977478 0.001699685 0.001430580 0.001531481 0.002307676 0.003599926 0.002260584 0.001347761 0.001175078 0.001384332 0.000925424 0.002803406 0.003348025 0.004016794 0.002078293 0.002242462 0.003457939 0.001623999 0.002344452 0.002194079 
    </DataArray>
    <DataArray Name="Cohesion" type="Float32" Format="ascii">
    400.000000000 400.000000000 6.724060009 400.000000000 400.000000000 400.000000000 400.000000000 400.000000000 400.000000000 400.000000000 400.000000000 400.000000000 400.000000000 400.000000000 400.000000000 400.000000000 400.000000000 400.000000000 400.000000000 400.000000000 400.000000000 400.000000000 400.000000000 400.000000000 400.000000000 400.000000000 400.000000000 400.000000000 400.000000000 400.000000000 400.000000000 400.000000000 400.000000000 400.000000000 400.000000000 400.000000000 400.000000000 400.000000000 400.000000000 400.000000000 400.000000000 400.000000000 400.000000000 400.000000000 400.000000000 400.000000000 400.000000000 400.000000000 400.000000000 400.000000000 400.000000000 400.000000000 400.000000000 400.000000000 400.000000000 400.000000000 400.000000000 400.000000000 400.000000000 400.000000000 400.000000000 400.000000000 400.000000000 400.000000000 400.000000000 400.000000000 400.000000000 400.000000000 400.000000000 400.000000000 400.000000000 400.000000000 400.000000000 400.000000000 400.000000000 400.000000000 400.000000000 400.000000000 400.000000000 400.000000000 400.000000000 400.000000000 400.000000000 400.000000000 5.955125273 400.000000000 400.000000000 400.000000000 400.000000000 400.000000000 400.000000000 400.000000000 400.000000000 0.028588993 0.639746403 400.000000000 400.000000000 400.000000000 56.774652629 0.290785547 400.000000000 0.051976724 2.343348689 1.655694649 0.770746486 400.000000000 341.797589941 0.741924881 2.626844570 0.819210725 0.885502937 0.908323540 0.139340535 400.000000000 0.667787349 0.815114382 0.716469061 0.706327483 0.718929085 0.459802309 0.899191919 1.226403947 1.031213666 0.724562508 0.644984441 0.740960901 0.915294485 0.747393381 0.296071263 0.522175404 1.223323560 6.145145002 0.978920130 0.760669775 0.783973565 0.452968407 1.041421295 0.862911766 0.767952255 0.753669148 1.097777048 1.336930884 1.582163951 1.038416115 1.192484124 1.054588353 1.333874550 1.219621244 400.000000000 400.000000000 400.000000000 400.000000000 400.000000000 400.000000000 400.000000000 400.000000000 400.000000000 400.000000000 400.000000000 400.000000000 400.000000000 400.000000000 400.000000000 400.000000000 400.000000000 400.000000000 400.000000000 400.000000000 400.000000000 400.000000000 400.000000000 400.000000000 400.000000000 400.000000000 400.000000000 400.000000000 400.000000000 394.370453161 400.000000000 387.746199548 218.453446826 396.438600825 400.000000000 11.399361880 128.204254913 245.917037711 49.592592987 12.616037585 400.000000000 400.000000000 400.000000000 400.000000000 400.000000000 314.075125823 400.000000000 400.000000000 9.117753579 400.000000000 400.000000000 400.000000000 30.382273439 48.380213929 6.400503639 4.545853871 8.459132263 1.611923377 4.632745908 0.787873298 3.196820937 5.289254454 36.405982913 400.000000000 1.756384727 400.000000000 400.000000000 400.000000000 10.602328070 400.000000000 400.000000000 24.782787062 1.856646745 2.657409486 0.550566900 1.796522630 1.478609162 1.976701204 207.052710625 78.951874151 0.343513795 0.788911879 0.677217056 1.177577739 0.991135342 1.061042198 1.598807788 2.494112718 1.566181161 0.933756608 0.814118249 0.959094114 0.641152564 1.942261492 2.319588089 2.782931701 1.439885356 1.553626131 2.395739650 1.125140255 1.624287220 1.520104879 
    </DataArray>
    <DataArray Name="Pressure" type="Float32" Format="ascii">
    680.233067645 1074.051077824 888.647702470 759.793949069 513.624143706 625.416342150 1018.661157046 866.481650791 1430.861205052 1223.970262480 728.014529954 1071.059996962 743.649901505 968.153730561 549.786826440 840.303569338 825.314196917 900.909861517 610.880314410 1566.525387615 1655.146474067 1711.082177040 1764.388467598 1712.113824925 1076.805040777 1018.315088552 636.607812504 942.251805930 1342.248694884 1276.205829012 1067.523821389 1487.070357069 1639.019438056 1506.294013109 1878.684761468 1834.116332980 1954.538611730 2029.118723173 1988.392825410 1701.102023417 1597.994235982 1514.919544678 1504.420202351 1429.191787464 1619.327923534 1620.194705374 1456.969515308 1390.590142564 2018.856090256 1994.788948341 2090.127632723 1937.052554157 1707.584305624 1243.152697304 1741.982587172 1406.894121483 1579.518618636 1749.704286347 1638.746394977 1488.300011443 2037.495269631 1728.230057187 1819.895202395 1708.117981111 1691.025831705 1166.823764330 1420.618056581 1305.211035588 1603.045969604 1650.067967025 1231.911594691 1254.956996299 1654.147408713 1677.154994023 1394.432976767 1837.756626662 1725.327736449 1728.212460239 1400.607170838 1610.159992119 1489.293872765 979.391546431 1139.851246871 1170.759744082 699.332161927 1355.735594086 1226.048728269 733.005724803 1021.003070049 1384.838122081 1379.515143499 1250.006602851 1438.849328382 270.780576099 824.054388472 1495.823396849 1050.797016955 845.387436485 908.862017839 497.123894087 1052.967136728 58.135649532 1034.142034221 974.306936678 199.285294012 1638.934087506 1119.947475836 1234.390484661 1232.589656263 1370.817591794 196.235585637 315.105873961 891.025574614 679.023371945 426.943492738 272.857051864 322.442418276 190.901613987 455.745337430 1271.672407421 1140.641713079 1067.904161574 1292.784531933 351.339191076 292.067356362 336.643005211 182.162155728 408.372497771 341.110528926 1081.135674423 999.304933495 1064.245178954 1231.441073439 555.915468785 224.051482256 453.345049829 75.244415324 55.238963939 695.289611631 1048.004097787 1056.777533899 922.868456327 902.714526181 358.593800919 305.527919622 319.375741533 340.833183102 404.670319871 481.958432684 552.627967512 658.271193622 574.264152451 656.537866116 899.933472074 890.319418271 494.686418483 755.699155211 646.292998398 705.379125836 632.539901957 753.178910378 604.231174085 563.331170611 523.127371159 948.652299546 775.522001254 1156.989395588 705.455199194 540.194225773 1272.254672478 754.048013005 1112.406124667 1393.191430282 1439.283455632 683.389369728 1266.366849597 385.245400998 764.565552956 501.887240105 325.979767805 712.283397691 654.243448197 763.575307052 235.853972871 76.296273473 610.104703727 425.867639734 318.580643311 970.281559390 754.407615070 679.693869026 1152.143953387 1072.763730584 735.798859291 1216.600032322 1363.603583991 471.210884329 1227.404037514 1199.394166992 1064.199685619 695.736255853 731.375370644 171.323314226 101.181577555 73.762915266 790.418722962 41.900019047 693.466749214 205.865846127 46.315921533 964.909777580 1042.280994324 910.860715372 786.656757472 789.166081986 948.332993158 938.855012415 1098.321605749 870.005932463 317.158278893 431.183427365 -105.738666463 767.939836787 -0.576167144 31.265647358 84.996709015 1116.216062307 1022.956511354 36.778005465 832.258019912 437.529968619 484.340176666 231.298038789 120.140152774 202.351799901 665.989376688 159.320879962 145.558744182 217.724088593 463.211680617 211.484179389 798.065299931 1002.327314240 591.862761340 472.188258605 367.843188061 712.407073789 402.961435707 526.743599219 425.979589809 
    </DataArray>
    <DataArray Name="Density" type="Float32" Format="ascii">
    2040.455943555 2040.528235201 2040.153834678 2040.328888954 2040.482220510 2040.322359363 2040.093619280 2040.196866928 2040.908833962 2040.164678271 2040.290201768 2040.070462884 2040.150317099 2040.099754652 2040.412042554 2040.164553399 2040.016842562 2040.028271558 2040.071929431 2040.155819794 2043.042804892 2050.718599274 2055.657612964 2055.863961753 2040.017441327 2040.030325813 2040.029640129 2040.013439673 2040.036605420 2039.962508146 2039.953883648 2040.009830565 2040.029820489 2040.045225248 2058.599752137 2060.057256679 2069.050295488 2074.302664901 2070.907080667 2039.981292318 2040.019472394 2047.196944161 2040.005169583 2040.036339522 2040.167785941 2039.935938736 2056.070566035 2040.013759214 2040.107012058 2082.767069028 2096.009396031 2040.193915007 2039.785323027 2040.223705675 2039.969622111 2058.372401611 2050.680992022 2040.189650166 2040.202711965 2039.916434304 2098.223550810 2078.137504823 2055.430831600 2047.174159318 2049.494991253 2039.907142694 2045.325313165 2040.152020209 2039.811797468 2040.020465700 2039.742108874 2040.443112926 2039.568197906 2040.027933807 2039.873260170 2053.025331906 2040.127323951 2040.075829001 2109.620416960 2102.754566906 2042.182792364 2040.309926096 2040.353925739 2040.519864507 2039.901689360 2039.899308594 2039.666645805 2040.524926570 2039.799158426 2040.321518918 2101.947959026 2040.405557567 2040.007586586 2089.166734731 2089.684530236 2038.742078554 2039.216734344 2040.712128663 2039.971460834 2234.889020487 2040.639362181 2054.993605011 2038.650234548 2045.343011588 2098.107234703 2102.072426318 2046.078608829 2039.293099706 2039.886118099 2039.603720221 2040.843811934 2040.339666503 2039.327305669 2130.644554795 2146.625217696 2040.211524278 2040.257434815 2041.250737925 2087.047990540 2039.662427513 2039.950374104 2040.024228055 2039.403166428 2040.670305481 2040.393941484 2040.691119555 2040.669915957 2040.587857353 2040.607813994 2039.711149688 2040.127746842 2039.940770957 2039.345745416 2039.904439762 2040.708810769 2040.146789121 2041.321558993 2041.214885027 2039.549484527 2039.975058016 2039.793185528 2040.116321924 2040.008067924 2040.216527049 2040.551144871 2040.592647837 2040.493728431 2040.326837451 2040.404690863 2040.264850104 2040.130309368 2040.294094045 2040.286173758 2045.470196166 2040.049270773 2040.263743246 2040.116727380 2039.966009939 2053.576573131 2044.422295122 2040.040635960 2040.062751462 2040.254242794 2040.373722906 2040.025143960 2046.356453111 2040.121426467 2040.060865761 2039.987232252 2050.245418614 2069.770441150 2039.956887213 2049.171606734 2039.918148100 2074.705389462 2053.813632231 2040.281572060 2040.047619041 2040.347168798 2040.457252027 2049.751629143 2039.964038298 2039.787209986 2153.534130436 2040.967742572 2039.664388221 2114.389105251 2039.898660399 2040.056809966 2040.308576383 2058.411443772 2069.263385656 2061.165894511 2040.449882994 2061.321557844 2044.851010462 2043.497835418 2054.282276617 2039.431873935 2055.632930681 2093.690140160 2107.454930107 2040.308584371 2169.466580853 2040.886181687 2194.515195946 2040.852770447 2039.220593914 2040.256655126 2040.993452226 2046.549724954 2052.452000033 2218.488329449 2040.252728015 2040.554657641 2039.957868890 2053.200659633 2039.259838236 2065.042542870 2041.476722828 2039.847659861 2086.300830600 2267.041448346 2041.035747572 2204.712681436 2040.856931331 2039.345839861 2129.419854120 2041.055229836 2119.871676733 2224.086343336 2253.833535303 2040.458760265 2051.047126780 2040.599051007 2044.278636680 2040.595331251 2040.694782687 2050.035880359 2039.712592986 2040.616639269 2040.238137064 2039.841978048 2040.565139763 2040.307728765 2040.639401385 2040.275741884 2040.598639220 2040.493841567 2040.388945346 
    </DataArray>
    <DataArray Name="Velocity" type="Float32"  NumberOfComponents="3" Format="ascii">