<?xml version="1.0"?>
<VTKFile type="PolyData" version="0.1" byte_order="LittleEndian">
 <PolyData>
  <Piece Name ="SoilBlock" NumberOfPoints="250" NumberOfVerts="250">
   <Points>
    <DataArray Name="Position" type="Float32"  NumberOfComponents="3" Format="ascii">
    1.69005 0.509377 0 1.71112 0.51162 0 1.73135 0.510583 0 1.74908 0.508706 0 1.72414 0.529714 0 1.74651 0.536735 0 1.77413 0.507501 0 1.79606 0.508208 0 1.81696 0.508605 0 1.83728 0.509118 0 1.78107 0.529019 0 1.77023 0.548892 0 1.79 0.55326 0 1.7991 0.529052 0 1.76037 0.525688 0 1.81029 0.548195 0 1.83932 0.530312 0 1.81953 0.528539 0 1.85195 0.549523 0 1.82994 0.550233 0 1.89735 0.509113 0 1.85738 0.508767 0 1.87759 0.509297 0 1.93667 0.50929 0 1.91701 0.509531 0 1.89303 0.549441 0 1.85887 0.528861 0 1.87135 0.54911 0 1.8793 0.529785 0 1.94091 0.529465 0 1.92036 0.529523 0 1.93282 0.549561 0 1.91236 0.548952 0 1.89947 0.52933 0 1.95631 0.509503 0 1.97564 0.509613 0 2.03379 0.509752 0 2.01467 0.509751 0 1.99519 0.509389 0 1.98289 0.529631 0 1.97303 0.548629 0 1.95211 0.549272 0 1.96157 0.529586 0 2.01238 0.547144 0 1.99146 0.550508 0 2.03145 0.552364 0 2.02504 0.530706 0 2.00328 0.529288 0 2.05396 0.508528 0 2.07158 0.512806 0 2.12799 0.507702 0 2.1097 0.512621 0 2.09014 0.506973 0 2.05195 0.545853 0 2.06698 0.531719 0 2.07226 0.554337 0 2.04462 0.528612 0 2.11013 0.534051 0 2.11174 0.552774 0 2.08738 0.545204 0 2.09101 0.527337 0 2.16593 0.508268 0 2.14803 0.51137 0 2.20342 0.509313 0 2.18567 0.510803 0 2.17326 0.528331 0 2.13282 0.546296 0 2.15256 0.531808 0 2.13078 0.527643 0 2.15237 0.552446 0 2.17187 0.547979 0 2.19651 0.529947 0 2.21996 0.529474 0 2.21258 0.54663 0 2.19009 0.54873 0 2.24188 0.509398 0 2.22233 0.509557 0 2.26163 0.509235 0 2.30356 0.509819 0 2.28234 0.509115 0 2.24624 0.546214 0 2.24057 0.529754 0 2.26102 0.555887 0 2.26268 0.52822 0 2.22642 0.557518 0 2.29576 0.528635 0 2.30068 0.550711 0 2.28167 0.554708 0 2.27804 0.535391 0 2.32427 0.509278 0 2.34801 0.508946 0 2.4035 0.506404 0 2.37584 0.508039 0 2.33834 0.546543 0 2.31781 0.551529 0 2.31689 0.531827 0 2.3571 0.542492 0 2.33699 0.526374 0 2.39505 0.556098 0 2.3657 0.562272 0 2.38132 0.561402 0 2.39779 0.53798 0 2.38736 0.521722 0 2.36248 0.52513 0 2.37796 0.542311 0 2.4298 0.505242 0 2.45737 0.507848 0 2.48364 0.511646 0 2.42891 0.548938 0 2.42657 0.531704 0 2.44176 0.52098 0 2.44625 0.544123 0 2.41472 0.555167 0 2.41348 0.521764 0 2.48042 0.544883 0 2.46225 0.544885 0 2.49395 0.534741 0 2.46786 0.524601 0 2.52416 0.512443 0 2.50512 0.512953 0 2.56582 0.508947 0 2.54509 0.511817 0 2.50897 0.541897 0 2.53791 0.533599 0 2.52225 0.54103 0 2.55064 0.547317 0 2.58037 0.542204 0 2.56302 0.534265 0 2.58291 0.520239 0 2.59749 0.509486 0 2.62035 0.509178 0 2.6475 0.508487 0 2.62406 0.542969 0 2.59805 0.546531 0 2.60917 0.530052 0 2.66434 0.51829 0 2.63436 0.524264 0 2.64577 0.541288 0 2.66277 0.541549 0 2.72406 0.508426 0 2.68039 0.509423 0 2.70046 0.50979 0 2.76113 0.508892 0 2.7436 0.514886 0 2.69803 0.541335 0 2.71055 0.52826 0 2.68225 0.535427 0 2.72725 0.534605 0 2.74255 0.539951 0 2.76238 0.537228 0 1.85023 0.588968 0 1.82778 0.574942 0 1.80742 0.567909 0 1.84368 0.567803 0 1.86436 0.57208 0 1.88887 0.60756 0 1.88859 0.586866 0 1.87016 0.594649 0 1.88263 0.567009 0 1.93075 0.585752 0 1.9247 0.60535 0 1.90882 0.591688 0 1.90355 0.571208 0 1.92219 0.568049 0 1.93246 0.626891 0 1.94295 0.612287 0 1.90895 0.61464 0 1.96975 0.58528 0 1.98977 0.592286 0 1.94402 0.570418 0 1.98566 0.571491 0 1.94978 0.592031 0 1.96526 0.603914 0 1.96375 0.566891 0 2.0271 0.570917 0 2.00395 0.60698 0 2.00561 0.56629 0 2.02558 0.591455 0 2.00951 0.585555 0 1.95757 0.624396 0 1.97663 0.615895 0 2.02047 0.614973 0 1.99071 0.613639 0 2.06606 0.574124 0 2.05481 0.604086 0 2.0679 0.605159 0 2.08165 0.580461 0 2.03785 0.606854 0 2.07832 0.597454 0 2.04909 0.566183 0 2.04638 0.586194 0 2.09462 0.564573 0 2.09498 0.59924 0 2.10993 0.606759 0 2.11649 0.592468 0 2.10578 0.576264 0 2.12801 0.584692 0 2.16614 0.570315 0 2.12955 0.565397 0 2.14464 0.596106 0 2.15834 0.595743 0 2.14743 0.57387 0 2.21534 0.578421 0 2.20652 0.590219 0 2.17448 0.591484 0 2.19033 0.59113 0 2.18381 0.570718 0 2.19915 0.565266 0 2.23039 0.576748 0 2.24794 0.587048 0 2.24471 0.568353 0 2.27967 0.572664 0 2.26646 0.577537 0 2.29683 0.572399 0 2.33228 0.56574 0 2.34837 0.564809 0 2.31461 0.572604 0 2.80518 0.50897 0 2.78386 0.509744 0 2.82888 0.507578 0 2.85227 0.51294 0 2.81164 0.530998 0 2.77738 0.529461 0 2.79523 0.535975 0 2.84721 0.536461 0 2.82939 0.528811 0 2.874 0.510054 0 2.89831 0.509313 0 2.92313 0.510027 0 2.94773 0.510372 0 2.87047 0.535099 0 2.8907 0.530392 0 2.91114 0.531144 0 2.93323 0.532078 0 2.97307 0.510287 0 2.99911 0.509602 0 3.02705 0.508128 0 2.98448 0.53119 0 2.95796 0.531625 0 3.0386 0.526558 0 3.01161 0.528622 0 3.05869 0.50638 0 3.11083 0.512472 0 3.1341 0.517257 0 3.0623 0.524392 0 3.08746 0.519055 0 3.15643 0.5102 0 3.18114 0.516055 0 3.20428 0.506597 0 3.23451 0.508374 0 
    </DataArray>
   </Points>
   <PointData  Vectors="vector">
    <DataArray Name="SortedParticle_ID" type="Int32" Format="ascii">
    0 1 2 3 4 5 6 7 8 9 10 11 12 13 14 15 16 17 18 19 20 21 22 23 24 25 26 27 28 29 30 31 32 33 34 35 36 37 38 39 40 41 42 43 44 45 46 47 48 49 50 51 52 53 54 55 56 57 58 59 60 61 62 63 64 65 66 67 68 69 70 71 72 73 74 75 76 77 78 79 80 81 82 83 84 85 86 87 88 89 90 91 92 93 94 95 96 97 98 99 100 101 102 103 104 105 106 107 108 109 110 111 112 113 114 115 116 117 118 119 120 121 122 123 124 125 126 127 128 129 130 131 132 133 134 135 136 137 138 139 140 141 142 143 144 145 146 147 148 149 150 151 152 153 154 155 156 157 158 159 160 161 162 163 164 165 166 167 168 169 170 171 172 173 174 175 176 177 178 179 180 181 182 183 184 185 186 187 188 189 190 191 192 193 194 195 196 197 198 199 200 201 202 203 204 205 206 207 208 209 210 211 212 213 214 215 216 217 218 219 220 221 222 223 224 225 226 227 228 229 230 231 232 233 234 235 236 237 238 239 240 241 242 243 244 245 246 247 248 249 
    </DataArray>
    <DataArray Name="OriginalID" type="Int32" Format="ascii">
    0 1 2 4 3 5 6 9 12 16 10 8 11 13 7 14 21 17 22 18 30 20 25 42 36 32 26 27 31 50 43 44 38 37 49 56 81 72 64 65 58 51 57 74 66 83 82 73 90 100 130 120 110 92 101 102 91 121 122 112 111 150 140 169 160 151 132 141 131 142 152 161 170 171 162 186 178 194 208 201 188 179 196 187 180 202 203 204 195 214 220 230 225 217 216 209 221 215 182 125 164 235 238 226 227 234 242 126 106 232 236 145 98 241 99 173 155 107 127 197 191 128 108 231 210 117 174 136 190 156 138 183 118 109 166 222 137 146 119 184 157 167 212 205 129 165 211 175 139 147 24 19 15 23 28 35 34 29 33 46 47 40 39 45 48 54 41 60 68 52 67 53 61 59 84 77 75 85 76 55 62 63 69 103 78 86 114 70 95 93 94 113 104 71 115 123 134 153 133 79 87 143 163 124 96 105 154 172 181 80 189 97 88 135 144 116 89 239 223 244 159 198 148 149 158 228 176 199 218 200 168 192 206 177 213 233 240 193 185 219 207 246 237 243 224 229 245 247 248 249 
    </DataArray>
    <DataArray Name="ErodedLabel" type="Int32" Format="ascii">
    0 0 0 1 0 0 0 0 0 0 0 0 0 0 0 0 0 0 0 0 0 0 0 0 0 0 0 0 0 0 0 0 0 0 0 0 0 0 0 0 0 0 0 0 0 0 0 0 0 0 0 0 0 0 0 0 0 0 0 0 0 0 0 0 0 0 0 0 0 0 0 0 0 0 0 0 0 0 0 0 0 0 1 0 1 0 1 1 0 0 0 0 0 1 1 0 1 0 1 1 1 1 0 0 1 0 1 1 1 1 1 1 1 1 1 1 1 1 1 1 0 1 1 1 1 1 1 1 1 1 1 1 1 1 1 1 1 1 1 1 1 1 1 1 1 1 1 1 1 1 0 0 0 0 0 0 0 0 0 0 0 0 0 0 1 1 0 0 1 0 0 0 1 0 0 1 0 1 1 1 1 0 1 1 1 1 1 1 1 0 1 0 1 1 1 1 1 1 0 1 1 1 1 1 1 1 1 1 1 1 1 1 1 1 1 1 1 1 1 0 1 1 0 1 1 1 1 1 1 1 1 1 1 0 1 1 1 1 1 0 1 1 1 1 1 1 1 1 1 1 
    </DataArray>
    <DataArray Name="Indicator" type="Int32" Format="ascii">
    1 1 1 0 1 1 0 0 0 0 1 1 1 0 1 1 0 0 0 0 0 0 0 0 0 0 0 0 0 0 0 0 0 0 0 0 0 0 0 0 0 0 0 0 0 0 0 0 0 0 0 0 0 0 0 0 0 0 0 0 0 0 0 0 0 0 0 0 0 0 0 0 0 0 0 0 0 0 0 0 0 0 1 0 0 0 1 1 0 0 0 0 0 1 1 0 1 0 1 1 1 1 0 0 1 0 0 0 1 1 0 1 1 0 1 1 1 1 0 0 0 0 1 1 1 1 1 1 1 0 0 0 1 1 1 0 1 1 1 0 0 0 0 0 1 1 1 1 1 1 1 1 1 1 1 1 1 1 0 0 1 1 0 0 1 1 1 0 1 0 0 0 1 0 0 1 0 1 0 1 1 1 1 0 1 1 0 1 1 0 1 0 1 1 1 0 1 1 0 1 1 1 1 1 1 1 1 0 1 1 1 1 1 1 1 1 1 1 1 1 0 1 1 1 1 1 0 1 0 0 1 1 1 1 0 1 1 1 1 1 1 1 1 1 1 1 1 1 1 1 
    </DataArray>
    <DataArray Name="VerticalStress" type="Float32" Format="ascii">
    -1056.792234117 -536.747212762 -665.661435517 -1078.832025217 -291.449421326 -137.994297492 -1746.494677817 -1837.347394561 -1765.395299907 -1689.773587214 -712.838842147 -241.702968870 -287.547912734 -895.716873869 -621.940479664 -556.746192272 -1700.220886253 -1309.333772100 -1389.167399959 -952.206577572 -2201.443260965 -1826.687496844 -2015.776570184 -2514.642922217 -2348.419981002 -1522.578023918 -1872.228493820 -1443.390009515 -1781.982934503 -1950.571455204 -1934.217018565 -1694.392624940 -1715.885913213 -1799.517200010 -2591.160703784 -2476.661642318 -2364.762000457 -2303.968672063 -2385.511049848 -2042.009519842 -1479.634215545 -1471.331742218 -1926.869690711 -1728.623373185 -1667.645331779 -1408.080505133 -1946.061334077 -2197.843795674 -2420.487287168 -2191.811682349 -2329.764787545 -2088.106184388 -2231.861585419 -1336.767575455 -1717.096370730 -1276.967366995 -1752.816232734 -1839.212356346 -1320.504537212 -1661.911221879 -1959.085330466 -2195.226573680 -2169.298964282 -1993.518022089 -2062.273486754 -1744.864965726 -1248.892852448 -1573.896650353 -1804.435983884 -1191.033478714 -1279.074051064 -1567.112296848 -1306.053921744 -1244.019483485 -1227.779845342 -1952.637464309 -1971.076140627 -2059.675557287 -1719.019428212 -1879.861375357 -1480.068082155 -1492.797543235 -577.457407956 -1616.401172330 -785.624475833 -1157.863594476 -655.995922891 -785.840362376 -1319.639887675 -1813.640700914 -1674.500071723 -1529.767038297 -1549.732148079 -713.345966914 -543.730827884 -1304.333396715 -814.893800763 -1559.286534848 -80.983224961 -147.912032529 -179.942458528 -933.225459108 -1412.703243045 -1215.234611485 -486.747037562 -1185.493468257 -1209.237577744 -1435.071137181 -251.251146711 -529.840809255 -993.482954295 -339.580306637 -241.012052315 -996.094695258 -237.550195805 -376.446800207 -519.885149816 -600.116897256 -1246.701766497 -1261.979727484 -1178.374285477 -1177.105352433 -286.112525751 -620.440614086 -250.918463154 -120.493675273 -142.417534627 -634.774181718 -943.377636133 -1186.761888967 -1173.042957656 -1183.411178973 -188.983828455 -361.145763500 -474.526953399 -857.732041192 -724.387099070 -240.819831196 -263.483460476 -1062.506389023 -1041.256369138 -987.255063387 -954.672653117 -923.089342913 -219.490590581 -595.637313346 -417.125984055 -203.754766358 -318.972379831 -305.361983935 -128.911805093 -243.959829255 -266.990022363 -531.714774141 -513.494220370 -89.162739338 -373.668125154 -144.593348828 -922.612751076 -1138.618903272 -428.509176131 -578.953602135 -1288.709807541 -1612.061881808 12.471261198 -383.502957087 51.637058711 -1026.732785810 -815.117771367 -1427.864485649 -1220.082840845 -1019.968887203 -417.751594445 -1148.640162116 -1162.285961681 -210.704642562 -1263.848602556 -549.140791896 -906.270165418 -179.539637869 -191.558278116 -252.831901230 -163.225595062 -1044.535469245 -277.676668284 -185.366453051 -871.456309403 -220.518889006 -314.611025334 -1032.470241126 -777.129688661 -1347.363526211 -252.987357468 -138.199115204 -510.849930379 -577.859381703 -470.704484409 -864.401665131 -1050.382814308 -90.940035867 -214.346312125 -741.635116846 -577.518714951 -140.818022699 -152.603421614 -175.939090767 -838.576063011 -579.006588156 -189.217344878 -187.724799319 -574.085797332 -128.041602771 -213.203407007 -144.778853504 -169.273809504 -131.288543679 -212.523291860 -866.684666689 -967.390006775 -902.034587353 -992.718873319 -385.294838959 -415.710134690 -250.633474211 -265.173957194 -351.384523072 -892.322901119 -915.377961120 -888.811518471 -858.593793898 -343.833516669 -322.645916075 -285.563368601 -316.547525980 -835.665747321 -811.985065127 -763.784342614 -363.889855731 -341.108164686 -430.108063172 -368.306737845 -752.208575076 -695.737004989 -588.634052960 -311.673896684 -865.162595570 -566.422094189 -539.241885983 -408.411768002 -385.587919037 
    </DataArray>
    <DataArray Name="FrictionAngle" type="Float32" Format="ascii">
    0.523598776 0.523598776 0.523598776 0.009677191 0.523598776 0.523598776 0.523598776 0.523598776 0.523598776 0.523598776 0.523598776 0.523598776 0.523598776 0.523598776 0.523598776 0.523598776 0.523598776 0.523598776 0.523598776 0.270095325 0.523598776 0.523598776 0.523598776 0.523598776 0.523598776 0.523598776 0.523598776 0.523598776 0.523598776 0.523598776 0.523598776 0.523598776 0.523598776 0.523598776 0.523598776 0.523598776 0.523598776 0.523598776 0.523598776 0.523598776 0.523598776 0.523598776 0.523598776 0.523598776 0.523598776 0.523598776 0.523598776 0.523598776 0.523598776 0.523598776 0.523598776 0.523598776 0.523598776 0.523598776 0.523598776 0.523598776 0.523598776 0.523598776 0.523598776 0.523598776 0.523598776 0.523598776 0.523598776 0.523598776 0.523598776 0.523598776 0.523598776 0.523598776 0.523598776 0.523598776 0.523598776 0.523598776 0.523598776 0.523598776 0.523598776 0.523598776 0.523598776 0.523598776 0.523598776 0.523598776 0.523598776 0.523598776 0.009764794 0.523598776 0.085842881 0.523598776 0.004706402 0.000793480 0.523598776 0.523598776 0.523598776 0.523598776 0.523598776 0.000007276 0.001730374 0.523598776 0.001825668 0.523598776 0.000565857 0.000544738 0.000816273 0.000563190 0.389579012 0.523598776 0.000039244 0.523598776 0.003784792 0.000708121 0.000866431 0.000370494 0.000015703 0.000423861 0.000887446 0.077371400 0.000762592 0.000492739 0.000699392 0.000797296 0.000848057 0.000668011 0.000379773 0.000919178 0.000707479 0.000898723 0.001103957 0.000822925 0.000557813 0.000819913 0.000790949 0.001108477 0.001040786 0.001164112 0.000377196 0.000810991 0.000657052 0.000767252 0.000669661 0.000782560 0.000742358 0.001392018 0.000645503 0.001227821 0.001653311 0.000845912 0.000803930 0.000976261 0.000072874 0.000881132 0.000859228 0.000923240 0.523598776 0.523598776 0.523598776 0.523598776 0.523598776 0.523598776 0.514882671 0.523598776 0.523598776 0.523598776 0.489038642 0.312477485 0.523598776 0.523598776 0.197800147 0.042205569 0.518908176 0.523598776 0.039388331 0.523598776 0.523598776 0.497781234 0.019583470 0.523598776 0.523598776 0.012251302 0.523598776 0.002256384 0.092206845 0.018648623 0.017486468 0.007574247 0.007657602 0.156553382 0.003295378 0.004713853 0.001010875 0.005581614 0.003481035 0.523598776 0.002272792 0.523598776 0.003917655 0.003606566 0.001846190 0.024679547 0.003045548 0.045417026 0.523598776 0.002547548 0.002243775 0.002568967 0.002430639 0.002067578 0.002126269 0.001222747 0.002627577 0.006270842 0.000135685 0.001938642 0.001400619 0.001305785 0.001369075 0.001388184 0.001277795 0.000803024 0.001332815 0.000606227 0.001431906 0.004786623 0.000959375 0.000408348 0.000957220 0.000846598 0.001166816 0.000999729 0.000196221 0.000189531 0.000119461 0.000583751 0.001040695 0.001123481 0.001318239 0.001285069 0.001381747 0.001558071 0.001631305 0.001453061 0.001302086 0.001401282 0.001417324 0.002060522 0.002395028 0.002652770 0.001608414 0.001708035 0.001695511 0.001135662 0.001317767 0.000937436 
    </DataArray>
    <DataArray Name="Cohesion" type="Float32" Format="ascii">
    400.000000000 400.000000000 400.000000000 6.704763876 400.000000000 400.000000000 400.000000000 400.000000000 400.000000000 400.000000000 400.000000000 400.000000000 400.000000000 400.000000000 400.000000000 400.000000000 400.000000000 400.000000000 400.000000000 191.814765006 400.000000000 400.000000000 400.000000000 400.000000000 400.000000000 400.000000000 400.000000000 400.000000000 400.000000000 400.000000000 400.000000000 400.000000000 400.000000000 400.000000000 400.000000000 400.000000000 400.000000000 400.000000000 400.000000000 400.000000000 400.000000000 400.000000000 400.000000000 400.000000000 400.000000000 400.000000000 400.000000000 400.000000000 400.000000000 400.000000000 400.000000000 400.000000000 400.000000000 400.000000000 400.000000000 400.000000000 400.000000000 400.000000000 400.000000000 400.000000000 400.000000000 400.000000000 400.000000000 400.000000000 400.000000000 400.000000000 400.000000000 400.000000000 400.000000000 400.000000000 400.000000000 400.000000000 400.000000000 400.000000000 400.000000000 400.000000000 400.000000000 400.000000000 400.000000000 400.000000000 400.000000000 400.000000000 6.765463046 400.000000000 59.620211411 400.000000000 3.260715290 0.549738902 400.000000000 400.000000000 400.000000000 400.000000000 400.000000000 0.005040759 1.198839511 400.000000000 1.264861131 400.000000000 0.392037295 0.377405893 0.565530472 0.390189452 284.446307020 400.000000000 0.027188964 400.000000000 2.622193201 0.490600905 0.600281396 0.256685888 0.010879334 0.293659762 0.614841079 53.711699931 0.528339081 0.341379475 0.484552748 0.552383222 0.587551476 0.462811372 0.263114280 0.636825450 0.490156190 0.622653603 0.764844169 0.570139055 0.386463953 0.568052516 0.547985889 0.767975908 0.721078194 0.806520641 0.261329353 0.561871221 0.455219238 0.531567996 0.463955106 0.542173294 0.514320535 0.964419128 0.447217772 0.850660015 1.145448761 0.586064967 0.556978946 0.676373869 0.050488402 0.610466475 0.595290536 0.639639556 400.000000000 400.000000000 400.000000000 400.000000000 400.000000000 400.000000000 391.988520275 400.000000000 400.000000000 400.000000000 368.687044844 223.823489419 400.000000000 400.000000000 138.855606674 29.258250811 395.678681057 400.000000000 27.303157283 400.000000000 400.000000000 376.495900751 13.569560422 400.000000000 400.000000000 8.488375395 400.000000000 1.563271234 64.064440180 12.921642752 12.116215096 5.247692921 5.305445751 109.358246586 2.283113443 3.265877527 0.700354906 3.867095585 2.411741550 400.000000000 1.574639044 400.000000000 2.714244932 2.498713391 1.279079496 17.101963848 2.110023764 31.487491492 400.000000000 1.764997180 1.554535605 1.779836369 1.683999349 1.432461985 1.473124928 0.847144702 1.820443154 4.344623975 0.094005144 1.343132337 0.970378168 0.904674923 0.948523411 0.961762891 0.885282968 0.556351723 0.923401799 0.420006784 0.992054070 3.316294867 0.664674677 0.282911817 0.663181809 0.586540172 0.808394375 0.692632656 0.135946207 0.131311185 0.082764969 0.404434611 0.721015176 0.778370552 0.913303397 0.890322576 0.957302920 1.079464099 1.130202599 1.006710752 0.902111861 0.970837384 0.981951826 1.427573571 1.659327543 1.837897462 1.114343080 1.183362797 1.174685319 0.786809747 0.912976060 0.649475034 
    </DataArray>
    <DataArray Name="Pressure" type="Float32" Format="ascii">
    1019.207985590 1031.943826608 999.979426903 999.423009631 676.041704253 635.230193756 929.361771679 1033.499685885 1283.785573669 1428.451448505 983.652161524 634.096662701 709.984426045 1078.551835100 879.624060303 896.416792641 833.555504541 1009.260421713 632.864172118 688.284942609 1710.515595813 1569.723707942 1656.236839524 1668.800663058 1698.342370611 1020.551795312 965.166324527 880.255181494 1271.433606967 1506.798077277 1383.861755727 1067.577381856 972.358545903 1434.058800835 1685.287813461 1703.988566946 1719.480483621 1729.279345126 1772.724911076 1466.299489687 1452.200369319 1418.036917490 1638.826613894 1000.327387613 1060.577612124 1187.733901572 1430.422979256 1366.854051400 1719.880949977 1618.995298211 1837.747737233 1692.919937104 1746.967669448 1416.044698867 1486.704788510 1186.577652298 1552.726875923 1280.889939298 1058.011270792 1111.542512717 1355.419145776 1754.777700606 1660.548464836 1535.754840440 1600.458940281 1191.849013195 1255.846379569 1371.535551009 1546.768767960 1253.844087707 985.706088016 1321.436135087 1288.746919328 1286.887714840 932.691372845 1417.033024015 1526.268775000 1488.729585671 1314.285918445 1451.203361840 1022.407917002 1157.835274168 518.570954086 1141.505389267 788.051128107 1148.844495098 733.604698103 866.441643404 1179.671309782 1440.717425149 1435.879944955 1343.952466076 1466.241143956 652.511384579 515.975274090 1075.532895765 777.530456653 1011.447821524 86.516302877 186.548383881 208.394624341 861.277372577 880.639942583 1023.774560660 470.794502404 960.987906535 1224.151188867 1437.036023222 207.296623068 431.802549951 964.200457440 314.260648771 226.650702218 830.631555545 240.319972442 373.377698991 523.618415897 599.826362698 1245.191687770 1263.184761801 1177.845602788 1177.251714238 288.462371963 620.144528676 252.268369387 119.540946915 142.342148790 633.889452792 944.193067409 1186.386287480 1172.757588607 1183.915187754 189.376082021 363.088592607 475.884783152 855.817460822 724.779394461 239.535267322 264.081756601 1062.686836028 1040.356668419 987.460250738 955.246090714 923.359174901 219.640233307 594.615120868 417.237244936 203.811461187 318.556807283 304.943245418 529.140485949 521.066403411 575.933195311 649.318609861 822.054208055 492.553797716 797.068632881 598.885014079 860.915510914 483.389755591 646.332400105 642.822629570 666.139313474 580.840349438 175.431608185 457.342335610 419.540859364 793.911053452 788.989814981 784.356264986 1063.012807440 644.831348567 370.240853227 1148.066017048 959.085581237 222.445645566 885.132778043 541.909386254 817.689278076 194.004425003 161.057468998 262.576382336 155.721378288 902.009618014 251.149138940 171.725757852 821.982311666 199.936727993 291.844340430 1134.999684412 740.376151566 999.164334981 248.250603628 138.045067023 530.316807170 569.367206572 497.990672475 766.347783272 999.013493987 80.980544135 192.671731089 804.387796726 599.459437198 136.052497097 119.898189632 147.203679320 721.124670421 557.011992488 186.996721376 173.696053203 529.580875536 151.753352731 212.356339139 166.925530147 180.704830328 162.737822054 215.206906457 866.361172134 966.435624946 901.048423930 992.961293940 385.957677854 415.343229206 249.785751829 265.434298071 351.425488521 891.931543396 915.838440786 888.943954021 858.554947208 343.936031166 322.470693455 286.270067702 316.551914346 837.881531815 812.415724655 764.272873252 363.216335839 340.851833242 431.067290914 367.593061303 754.775588474 690.686863302 588.920900034 310.344545275 865.570732975 562.716078049 540.829261992 405.415395939 384.305875798 
    </DataArray>
    <DataArray Name="Density" type="Float32" Format="ascii">
    2040.558159795 2040.377382599 2040.436551554 2040.160142635 2040.372203334 2040.441831892 2040.164632417 2040.216485041 2054.434940924 2048.594265594 2040.082203886 2040.349879108 2040.339296604 2040.069076039 2040.172502848 2040.100550050 2039.997218932 2040.050697531 2039.999692511 2040.051720380 2073.377806235 2063.715296968 2057.803391474 2073.358768956 2070.088919549 2040.015545681 2040.028306405 2040.008595763 2040.025243664 2040.022484000 2040.033747908 2039.955109199 2039.980241291 2039.996979250 2075.946041584 2072.717907055 2072.075764051 2063.228967752 2080.471327297 2040.016687573 2052.461996691 2050.043783632 2039.969661642 2062.676938610 2048.842241346 2040.113187446 2039.933603379 2039.774266779 2083.418906770 2058.406328677 2095.132349584 2040.152053619 2110.236495867 2040.016015155 2039.991652208 2040.024414055 2040.175237729 2040.011394433 2039.886522830 2040.067001243 2039.976613653 2110.596336249 2058.385807826 2107.645055981 2099.948274311 2040.353598850 2040.195788849 2040.269390931 2039.983765712 2039.598163040 2057.272839346 2040.004836339 2040.367146857 2039.178570214 2103.867429762 2067.384370712 2081.860547336 2051.360737965 2040.383492798 2040.155031811 2039.282851777 2039.986937269 2086.405662973 2039.894013463 2080.751060290 2040.207994770 2113.512696356 2162.362457150 2039.687817476 2040.057396024 2040.149471057 2060.396014423 2039.898225000 2145.780834250 2171.203573323 2039.485942093 2104.989000879 2039.918208655 2041.047038367 2040.614347214 2040.453489645 2074.025927258 2040.353923354 2039.800416904 2204.540511548 2115.598956269 2039.916595877 2039.267422923 2040.640779853 2185.806972233 2039.232127074 2040.463180329 2040.399827982 2047.652527992 2040.661071301 2040.197543095 2040.269339264 2040.711642333 2039.763743054 2039.787648838 2040.082718872 2039.970744081 2040.605425621 2039.919793653 2040.786830684 2040.829996085 2041.070467748 2039.812426773 2039.712184309 2039.917455801 2039.836053273 2039.859707704 2040.704135914 2040.077889491 2040.568027304 2039.966066486 2039.928067254 2040.596345366 2040.530574302 2039.865588732 2040.037123118 2040.079735880 2040.106619298 2039.769169522 2040.613311272 2039.933855706 2040.328165628 2040.993288383 2040.300028475 2040.486560351 2040.322626219 2040.375636808 2040.301639433 2040.125204850 2040.027962968 2040.273847146 2040.069114615 2040.282330324 2040.068202590 2042.505018750 2046.253532983 2039.995606880 2039.997777775 2047.537325339 2040.641603884 2075.475629829 2040.475718721 2071.060256206 2095.382212278 2040.057025520 2039.844973265 2055.161964831 2191.604341894 2040.089138929 2042.116643763 2099.559932996 2043.018078658 2122.691031221 2100.642890591 2040.331547038 2040.541137909 2040.213817412 2040.642140728 2059.047345678 2076.337764274 2058.451580749 2173.954089055 2040.652571317 2249.671937196 2039.854557482 2055.401810393 2073.452693963 2044.512709410 2040.590811471 2205.710422870 2112.215533806 2188.446907540 2081.256767415 2047.891260576 2040.976810203 2040.408761034 2081.634420805 2169.369087887 2040.695518453 2040.828322101 2040.649053781 2217.490647367 2151.311720711 2181.139352171 2040.414335026 2239.886224007 2084.819200435 2040.458056158 2040.748726406 2040.696259617 2040.732221630 2040.370200845 2040.070531952 2039.836844589 2040.076951192 2039.669280805 2040.319078272 2040.416590456 2040.603077157 2040.539444713 2040.582074226 2040.128742035 2039.928129919 2039.972835659 2040.068578555 2040.384193166 2040.545600371 2040.582159647 2040.475277576 2040.109962351 2040.128633648 2040.213802372 2040.408524024 2040.451620787 2040.279974319 2040.447992325 2040.217077127 2040.495038814 2040.368400786 2040.690167267 2039.969868955 2040.524104417 2040.328159426 2040.648107778 2040.579715313 
    </DataArray>
    <DataArray Name="Velocity" type="Float32"  NumberOfComponents="3" Format="ascii">