<?xml version="1.0"?>
<VTKFile type="PolyData" version="0.1" byte_order="LittleEndian">
 <PolyData>
  <Piece Name ="SoilBlock" NumberOfPoints="250" NumberOfVerts="250">
   <Points>
    <DataArray Name="Position" type="Float32"  NumberOfComponents="3" Format="ascii">
    1.71057 0.510532 0 1.69005 0.509876 0 1.75005 0.508959 0 1.72984 0.50927 0 1.75038 0.53222 0 1.72961 0.529697 0 1.79084 0.509332 0 1.77046 0.508852 0 1.83093 0.50959 0 1.81118 0.509268 0 1.8515 0.509098 0 1.76969 0.549174 0 1.79113 0.552067 0 1.76866 0.529414 0 1.78851 0.531196 0 1.81049 0.548205 0 1.84767 0.528781 0 1.85095 0.548165 0 1.80793 0.528812 0 1.8288 0.531128 0 1.82951 0.551905 0 1.89204 0.509179 0 1.87151 0.509628 0 1.93223 0.509063 0 1.91164 0.5099 0 1.87076 0.552161 0 1.88689 0.528413 0 1.89154 0.547665 0 1.86783 0.531396 0 1.93142 0.547446 0 1.91021 0.552585 0 1.90777 0.531442 0 1.92685 0.528296 0 1.95174 0.51011 0 1.97239 0.509 0 2.03125 0.510876 0 2.01212 0.50876 0 1.99152 0.510549 0 1.98791 0.532048 0 1.94758 0.531722 0 1.9715 0.546856 0 1.9507 0.552876 0 1.96669 0.528024 0 1.99025 0.5533 0 2.03032 0.553607 0 2.02835 0.532414 0 2.00723 0.52775 0 2.01124 0.546442 0 2.07068 0.511481 0 2.0518 0.508518 0 2.11024 0.511409 0 2.0907 0.508329 0 2.05142 0.546162 0 2.06898 0.532289 0 2.07019 0.554016 0 2.04752 0.527734 0 2.11064 0.553295 0 2.08998 0.546286 0 2.08932 0.527522 0 2.10958 0.532984 0 2.12983 0.508352 0 2.14914 0.511651 0 2.16796 0.508475 0 2.20864 0.508756 0 2.18892 0.510468 0 2.16703 0.546607 0 2.15177 0.531736 0 2.12966 0.52784 0 2.14877 0.554764 0 2.13144 0.545749 0 2.17318 0.527931 0 2.21134 0.54627 0 2.19014 0.552843 0 2.19086 0.533053 0 2.21106 0.52776 0 2.2475 0.509009 0 2.2287 0.510887 0 2.28775 0.508971 0 2.26824 0.510092 0 2.30871 0.509574 0 2.22971 0.554495 0 2.2476 0.546352 0 2.23205 0.531379 0 2.25364 0.528106 0 2.27225 0.532113 0 2.29353 0.52784 0 2.28752 0.546842 0 2.3119 0.552779 0 2.29413 0.563953 0 2.26946 0.553741 0 2.31098 0.533134 0 2.34775 0.510393 0 2.32836 0.509405 0 2.38887 0.508592 0 2.36618 0.509831 0 2.35461 0.530815 0 2.34987 0.559512 0 2.33134 0.527941 0 2.33269 0.545742 0 2.37724 0.525753 0 2.3883 0.538513 0 2.37985 0.554494 0 2.40387 0.558586 0 2.36059 0.546277 0 2.44205 0.508727 0 2.42564 0.511945 0 2.41082 0.511316 0 2.46405 0.51499 0 2.47949 0.506165 0 2.44907 0.5313 0 2.43163 0.534838 0 2.43199 0.559875 0 2.4045 0.527102 0 2.41536 0.54495 0 2.46302 0.541861 0 2.48416 0.539835 0 2.45127 0.557777 0 2.53005 0.512861 0 2.50447 0.514704 0 2.58053 0.513111 0 2.55249 0.506601 0 2.51907 0.5372 0 2.49952 0.532938 0 2.5419 0.533229 0 2.56239 0.526185 0 2.6118 0.50864 0 2.6385 0.508563 0 2.60076 0.522804 0 1.80882 0.568807 0 1.84876 0.567483 0 1.84928 0.588887 0 1.83069 0.572592 0 1.88795 0.5669 0 1.86833 0.572917 0 1.88879 0.608455 0 1.89017 0.586679 0 1.87121 0.592775 0 1.92778 0.566393 0 1.93046 0.5862 0 1.92901 0.606072 0 1.90882 0.593441 0 1.90918 0.573379 0 1.91119 0.613034 0 1.92918 0.628379 0 1.98903 0.573905 0 1.95043 0.593768 0 1.96842 0.605507 0 1.98905 0.594311 0 1.96769 0.566063 0 1.97071 0.585127 0 1.94824 0.573734 0 2.0289 0.574006 0 2.00833 0.604536 0 2.00808 0.565604 0 2.01038 0.585057 0 2.02961 0.594402 0 1.96996 0.625331 0 1.98967 0.614314 0 1.94821 0.61385 0 1.95138 0.633135 0 1.96883 0.64791 0 1.98852 0.633868 0 2.00914 0.645194 0 2.02936 0.65313 0 2.02919 0.614202 0 2.02933 0.633823 0 1.99155 0.652832 0 2.01004 0.624735 0 2.00922 0.667716 0 2.03094 0.672302 0 2.07031 0.594486 0 2.04891 0.604171 0 2.04827 0.565391 0 2.0503 0.584778 0 2.06905 0.574 0 2.08986 0.565069 0 2.12782 0.566112 0 2.10954 0.574895 0 2.11035 0.593566 0 2.1272 0.605141 0 2.08986 0.604261 0 2.08936 0.584532 0 2.07093 0.63391 0 2.06777 0.653177 0 2.0497 0.62443 0 2.06848 0.614242 0 2.04978 0.643817 0 2.12753 0.642123 0 2.08973 0.623254 0 2.11246 0.654031 0 2.08978 0.645033 0 2.11017 0.614779 0 2.1083 0.633828 0 2.14666 0.596324 0 2.17363 0.565549 0 2.16626 0.58612 0 2.133 0.583403 0 2.1532 0.572623 0 2.2145 0.584926 0 2.17565 0.603898 0 2.20772 0.603793 0 2.19079 0.593023 0 2.19053 0.575115 0 2.20832 0.565649 0 2.13304 0.622968 0 2.16388 0.626005 0 2.14549 0.637695 0 2.17141 0.650324 0 2.16261 0.653869 0 2.15538 0.611075 0 2.19527 0.652653 0 2.20135 0.641422 0 2.18075 0.632287 0 2.19117 0.616742 0 2.21001 0.628362 0 2.0515 0.687316 0 2.04807 0.665689 0 2.07083 0.670594 0 2.07153 0.687547 0 2.11461 0.683214 0 2.09032 0.663441 0 2.09348 0.684798 0 2.11114 0.669635 0 2.14407 0.659154 0 2.13978 0.670266 0 2.23125 0.57301 0 2.22974 0.596303 0 2.25336 0.565305 0 2.24857 0.603565 0 2.24869 0.584305 0 2.27142 0.575123 0 2.29499 0.606486 0 2.30835 0.599021 0 2.26974 0.598111 0 2.2848 0.58493 0 2.30533 0.578784 0 2.26082 0.616205 0 2.22806 0.616797 0 2.2281 0.630964 0 2.25231 0.629886 0 2.28209 0.61591 0 2.35529 0.59677 0 2.33229 0.586805 0 2.32356 0.566459 0 2.32229 0.597155 0 2.34409 0.572326 0 2.38147 0.569956 0 2.38151 0.587053 0 2.36549 0.583983 0 2.41247 0.572503 0 
    </DataArray>
   </Points>
   <PointData  Vectors="vector">
    <DataArray Name="SortedParticle_ID" type="Int32" Format="ascii">
    0 1 2 3 4 5 6 7 8 9 10 11 12 13 14 15 16 17 18 19 20 21 22 23 24 25 26 27 28 29 30 31 32 33 34 35 36 37 38 39 40 41 42 43 44 45 46 47 48 49 50 51 52 53 54 55 56 57 58 59 60 61 62 63 64 65 66 67 68 69 70 71 72 73 74 75 76 77 78 79 80 81 82 83 84 85 86 87 88 89 90 91 92 93 94 95 96 97 98 99 100 101 102 103 104 105 106 107 108 109 110 111 112 113 114 115 116 117 118 119 120 121 122 123 124 125 126 127 128 129 130 131 132 133 134 135 136 137 138 139 140 141 142 143 144 145 146 147 148 149 150 151 152 153 154 155 156 157 158 159 160 161 162 163 164 165 166 167 168 169 170 171 172 173 174 175 176 177 178 179 180 181 182 183 184 185 186 187 188 189 190 191 192 193 194 195 196 197 198 199 200 201 202 203 204 205 206 207 208 209 210 211 212 213 214 215 216 217 218 219 220 221 222 223 224 225 226 227 228 229 230 231 232 233 234 235 236 237 238 239 240 241 242 243 244 245 246 247 248 249 
    </DataArray>
    <DataArray Name="OriginalID" type="Int32" Format="ascii">
    1 0 4 2 5 3 9 6 16 12 20 8 11 7 10 14 21 22 13 17 18 30 25 42 36 27 31 32 26 44 38 37 43 49 56 81 72 64 65 50 58 51 57 66 83 82 73 74 100 90 120 110 92 101 102 91 122 112 111 121 130 140 150 169 160 152 141 131 142 132 151 171 162 161 170 186 178 201 194 208 180 188 179 187 195 202 203 210 204 196 209 220 214 230 225 221 222 215 216 226 231 228 218 227 241 238 234 242 244 239 236 200 235 232 213 219 207 240 233 245 246 229 224 237 243 248 249 247 15 23 24 19 33 28 35 34 29 45 46 47 40 39 41 48 67 53 61 68 59 60 52 84 77 75 76 85 62 69 54 55 63 70 79 88 86 87 71 78 80 89 104 95 93 94 103 113 133 123 124 135 115 114 106 107 96 105 97 137 116 127 117 125 126 144 153 154 134 143 173 155 174 164 163 172 136 156 146 148 147 145 149 157 166 165 175 99 98 108 109 129 118 119 128 138 139 181 182 189 191 190 197 176 184 198 205 211 167 183 158 159 168 177 199 217 192 212 223 185 206 193 
    </DataArray>
    <DataArray Name="ErodedLabel" type="Int32" Format="ascii">
    0 1 0 0 0 0 0 0 0 0 0 0 0 0 0 0 0 0 0 0 0 0 0 0 0 0 0 0 0 0 0 0 0 0 0 0 0 0 0 0 0 0 0 0 0 0 0 0 0 0 0 0 0 0 0 0 0 0 0 0 0 0 0 0 0 0 0 0 0 0 0 0 0 0 0 0 0 0 0 0 0 0 0 0 0 0 0 0 0 0 0 0 0 0 0 0 1 0 0 0 1 1 1 0 0 0 0 1 1 1 1 1 1 1 1 1 1 1 1 1 1 1 1 1 1 1 1 1 0 0 0 0 0 0 0 0 0 0 0 0 0 0 0 0 0 0 0 0 0 0 0 0 0 0 0 0 0 0 0 0 0 0 0 0 0 0 0 0 0 0 0 0 0 0 0 0 0 0 0 0 0 0 0 0 0 0 0 1 0 1 0 0 0 0 0 0 0 0 0 0 0 0 0 0 0 0 1 1 1 0 1 1 1 1 1 0 0 1 1 1 1 1 1 1 1 0 0 0 1 0 0 1 1 1 1 1 1 1 1 1 1 1 1 0 1 1 1 1 1 1 
    </DataArray>
    <DataArray Name="Indicator" type="Int32" Format="ascii">
    1 1 0 1 1 1 0 0 0 0 0 1 1 1 1 1 0 0 0 0 1 0 0 0 0 0 0 0 0 0 0 0 0 0 0 0 0 0 0 0 0 0 0 0 0 0 0 0 0 0 0 0 0 0 0 0 0 0 0 0 0 0 0 0 0 0 0 0 0 0 0 0 0 0 0 0 0 0 0 0 0 0 0 0 0 0 0 0 0 0 0 0 0 0 0 0 0 0 0 0 0 0 1 0 0 0 0 0 0 1 0 1 0 1 1 1 1 0 1 1 1 1 1 1 1 1 1 1 1 1 1 1 0 1 1 1 1 0 0 1 1 0 1 1 0 0 0 0 0 0 0 0 0 0 0 0 1 0 1 1 1 1 1 1 0 0 1 0 1 1 0 0 0 0 0 0 0 0 0 0 0 0 0 0 0 0 0 0 0 0 0 0 0 0 0 0 0 0 0 0 0 0 0 0 0 0 1 1 1 0 1 1 1 0 1 1 1 1 1 1 1 1 1 1 1 0 0 0 1 0 0 1 1 1 0 1 1 1 1 1 1 1 1 0 1 0 1 1 1 1 
    </DataArray>
    <DataArray Name="VerticalStress" type="Float32" Format="ascii">
    -924.590899631 -304.620750101 -901.556102417 -1118.589863376 -579.089642384 -486.966772830 -1167.935465246 -960.345675576 -1914.676485173 -1537.335837295 -2288.093099303 -626.284962290 -736.442070644 -946.980393814 -1168.930476777 -1001.509450687 -1270.029318658 -824.752894733 -1297.341598436 -1205.703987352 -854.593663649 -2550.088083893 -2420.172877478 -2731.337735922 -2571.266856397 -998.498124447 -1856.321581407 -1371.146938246 -1429.176132632 -2068.076373865 -1596.435506432 -2190.140146019 -2450.567736702 -2883.238844120 -3109.492689447 -3391.393273223 -3441.440042367 -3215.531532121 -2700.787144378 -2579.775587317 -2389.617942742 -2104.192174586 -2663.982812580 -2418.435111639 -2524.282692938 -2978.665557263 -2893.657371298 -2538.411945207 -3349.900189162 -3618.266700812 -3196.157906524 -3584.842057830 -2721.087678176 -3121.982935084 -2581.341382340 -3135.227406759 -2581.080188728 -2825.079340767 -3119.074848266 -3052.870812912 -3444.696582985 -3086.373945030 -3292.515455507 -3249.780478351 -3104.671976700 -2389.082774327 -2838.108244467 -3016.436009686 -2529.247685746 -2564.216742603 -2859.018051836 -2243.883227209 -2182.119234168 -2637.034405892 -2715.161037474 -3168.756155206 -3064.257891953 -2803.057372512 -2877.791598574 -2205.243033243 -2093.581611446 -2466.939801783 -2636.839895470 -2603.653103693 -2536.838875280 -2336.146473227 -1606.867034788 -1158.669288798 -1520.499995076 -1770.510357561 -1491.757642581 -1906.666440673 -1956.204389520 -2316.745733243 -2120.231452893 -1585.247137059 -848.318428392 -1488.247843100 -1410.569525278 -1484.446323203 -1550.406909231 -583.134073908 -72.328546149 -1536.124533323 -1832.193346380 -1304.274336149 -1579.254923506 -1100.287208820 -799.136150795 -620.453303770 -910.764170987 -131.975205679 -1088.446034039 -974.376247192 -446.366540827 -861.390749619 -203.425223579 -945.234281116 -1793.018803662 -877.295551639 -775.168268356 -192.691833803 89.734531840 -291.307436370 -325.215702706 -632.958662034 -434.604712454 -263.184998151 -603.358071399 -888.492161704 -643.209894868 -561.673725253 -1149.470484181 -1029.823815361 -601.053030112 -1042.347623538 -732.442401500 -1281.914570612 -833.905678423 -891.899222941 -883.056559587 -1021.806902905 -598.402106450 -650.664037727 -2081.214311363 -891.786600917 -972.751042075 -1357.901493585 -1912.721686105 -1319.341922938 -1271.819548240 -2349.812170044 -1191.141608875 -2392.534571919 -2060.380562108 -1941.153841783 -985.010691815 -863.397333263 -989.046226090 -721.010696011 -594.424768345 -883.567044480 -860.872205099 -957.525342642 -1145.597910260 -709.819529793 -620.505651491 -734.076475862 -593.499609395 -585.640994078 -2128.555944786 -1874.543881715 -2289.876806676 -2272.094720792 -2278.753341335 -2349.450329342 -2188.972408072 -2148.751387773 -1687.206678975 -1484.782434611 -2157.346590922 -2079.448194622 -1111.605874143 -789.282180405 -1092.169656751 -1920.853340517 -865.742618223 -724.012448493 -1514.192483718 -810.427633026 -905.490834040 -1798.289356216 -1425.617269225 -1671.899537799 -2006.924967895 -2044.027837565 -1430.180413468 -1855.590920943 -1353.501910920 -1489.260338771 -1002.808468052 -1687.397137465 -1780.924978353 -1613.134349648 -1215.121052712 -1592.839851890 -557.534488018 -161.650204469 -149.043146959 -1009.330844613 -171.236395495 -144.471817604 -417.129429144 -1038.787002686 -748.412280796 -494.137177879 -886.424206154 -808.203495744 -241.367443926 -146.083084564 -326.417401070 -136.755436321 -336.786459425 -504.618572632 -57.911762870 -1602.718323553 -1271.242998769 -1620.124452976 -292.402559559 -1440.522049721 -1402.057065792 -353.762487347 -439.081021001 -1032.839349161 -300.000400402 -615.463358842 -208.147235264 -1316.388314379 407.026812525 -248.825375196 -67.212474403 -170.127160771 -656.577914220 -342.433145946 -149.473322932 -936.251055437 -983.066168420 -28.217258653 -181.758034814 -263.452114781 
    </DataArray>
    <DataArray Name="FrictionAngle" type="Float32" Format="ascii">
    0.523598776 0.523598776 0.523598776 0.523598776 0.523598776 0.523598776 0.523598776 0.523598776 0.523598776 0.523598776 0.523598776 0.523598776 0.523598776 0.523598776 0.523598776 0.523598776 0.523598776 0.523598776 0.523598776 0.523598776 0.523598776 0.523598776 0.523598776 0.523598776 0.523598776 0.523598776 0.523598776 0.523598776 0.523598776 0.523598776 0.523598776 0.523598776 0.523598776 0.523598776 0.523598776 0.523598776 0.523598776 0.523598776 0.523598776 0.523598776 0.523598776 0.523598776 0.523598776 0.523598776 0.523598776 0.523598776 0.523598776 0.523598776 0.523598776 0.523598776 0.523598776 0.523598776 0.523598776 0.523598776 0.523598776 0.523598776 0.523598776 0.523598776 0.523598776 0.523598776 0.523598776 0.523598776 0.523598776 0.523598776 0.523598776 0.523598776 0.523598776 0.523598776 0.523598776 0.523598776 0.523598776 0.523598776 0.523598776 0.523598776 0.523598776 0.523598776 0.523598776 0.523598776 0.523598776 0.523598776 0.523598776 0.523598776 0.523598776 0.523598776 0.523598776 0.523598776 0.523598776 0.523598776 0.523598776 0.523598776 0.523598776 0.523598776 0.523598776 0.523598776 0.523598776 0.523598776 0.124665731 0.523598776 0.523598776 0.523598776 0.270524880 0.005168817 0.004480355 0.523598776 0.458307299 0.523598776 0.523598776 0.004105188 0.022674994 0.002499447 0.005996150 0.003996200 0.100194962 0.005745977 0.004228018 0.004219743 0.003833367 0.006247841 0.005744955 0.006805080 0.007544270 0.005107057 0.004790517 0.005648747 0.006111218 0.006166612 0.004270643 0.005749565 0.523598776 0.523598776 0.523598776 0.523598776 0.523598776 0.523598776 0.523598776 0.523598776 0.523598776 0.523598776 0.523598776 0.523598776 0.523598776 0.523598776 0.523598776 0.523598776 0.523598776 0.523598776 0.523598776 0.523598776 0.523598776 0.523598776 0.523598776 0.523598776 0.523598776 0.523598776 0.523598776 0.523598776 0.523598776 0.523598776 0.523598776 0.523598776 0.523598776 0.523598776 0.523598776 0.523598776 0.523598776 0.523598776 0.523598776 0.523598776 0.523598776 0.523598776 0.523598776 0.523598776 0.523598776 0.523598776 0.523598776 0.523598776 0.523598776 0.523598776 0.523598776 0.523598776 0.523598776 0.523598776 0.523598776 0.523598776 0.523598776 0.523598776 0.523598776 0.039912536 0.523598776 0.044612036 0.523598776 0.523598776 0.523598776 0.523598776 0.523598776 0.523598776 0.523598776 0.523598776 0.523598776 0.523598776 0.493102453 0.523598776 0.523598776 0.523598776 0.523598776 0.351466137 0.043136236 0.018606620 0.017878342 0.523598776 0.013866108 0.001284086 0.015493942 0.172395839 0.012714677 0.523598776 0.523598776 0.059833401 0.215502399 0.048656772 0.000699800 0.153904874 0.062280016 0.012425417 0.014401326 0.523598776 0.523598776 0.523598776 0.000620796 0.523598776 0.523598776 0.005516992 0.005392780 0.011589715 0.029476393 0.025874648 0.006956293 0.017544351 0.009658222 0.008062655 0.005252111 0.005600807 0.002932201 0.098079332 0.005065677 0.005355179 0.004381090 0.004183560 0.005073672 0.004159392 
    </DataArray>
    <DataArray Name="Cohesion" type="Float32" Format="ascii">
    400.000000000 400.000000000 400.000000000 400.000000000 400.000000000 400.000000000 400.000000000 400.000000000 400.000000000 400.000000000 400.000000000 400.000000000 400.000000000 400.000000000 400.000000000 400.000000000 400.000000000 400.000000000 400.000000000 400.000000000 400.000000000 400.000000000 400.000000000 400.000000000 400.000000000 400.000000000 400.000000000 400.000000000 400.000000000 400.000000000 400.000000000 400.000000000 400.000000000 400.000000000 400.000000000 400.000000000 400.000000000 400.000000000 400.000000000 400.000000000 400.000000000 400.000000000 400.000000000 400.000000000 400.000000000 400.000000000 400.000000000 400.000000000 400.000000000 400.000000000 400.000000000 400.000000000 400.000000000 400.000000000 400.000000000 400.000000000 400.000000000 400.000000000 400.000000000 400.000000000 400.000000000 400.000000000 400.000000000 400.000000000 400.000000000 400.000000000 400.000000000 400.000000000 400.000000000 400.000000000 400.000000000 400.000000000 400.000000000 400.000000000 400.000000000 400.000000000 400.000000000 400.000000000 400.000000000 400.000000000 400.000000000 400.000000000 400.000000000 400.000000000 400.000000000 400.000000000 400.000000000 400.000000000 400.000000000 400.000000000 400.000000000 400.000000000 400.000000000 400.000000000 400.000000000 400.000000000 86.821197052 400.000000000 400.000000000 400.000000000 192.135219206 3.581093642 3.104101587 400.000000000 341.797589941 400.000000000 400.000000000 2.844173979 15.712389637 1.731670942 4.154304071 2.768663504 69.650336195 3.980973620 2.929274233 2.923540973 2.655847745 4.328687626 3.980265637 4.714770241 5.226922507 3.538303472 3.318992801 3.913608525 4.234028867 4.272408166 2.958806291 3.983459706 400.000000000 400.000000000 400.000000000 400.000000000 400.000000000 400.000000000 400.000000000 400.000000000 400.000000000 400.000000000 400.000000000 400.000000000 400.000000000 400.000000000 400.000000000 400.000000000 400.000000000 400.000000000 400.000000000 400.000000000 400.000000000 400.000000000 400.000000000 400.000000000 400.000000000 400.000000000 400.000000000 400.000000000 400.000000000 400.000000000 400.000000000 400.000000000 400.000000000 400.000000000 400.000000000 400.000000000 400.000000000 400.000000000 400.000000000 400.000000000 400.000000000 400.000000000 400.000000000 400.000000000 400.000000000 400.000000000 400.000000000 400.000000000 400.000000000 400.000000000 400.000000000 400.000000000 400.000000000 400.000000000 400.000000000 400.000000000 400.000000000 400.000000000 400.000000000 27.666909072 400.000000000 30.928646175 400.000000000 400.000000000 400.000000000 400.000000000 400.000000000 400.000000000 400.000000000 400.000000000 400.000000000 400.000000000 372.307698239 400.000000000 400.000000000 400.000000000 400.000000000 254.050893251 29.904211330 12.892532151 12.387798693 400.000000000 9.607336967 0.889641021 10.735377006 120.636837325 8.809461107 400.000000000 400.000000000 41.503335937 151.659496527 33.737028574 0.484835802 107.478370949 43.204736113 8.609024316 9.978221313 400.000000000 400.000000000 400.000000000 0.430100217 400.000000000 400.000000000 3.822323224 3.736263534 8.029949594 20.427760613 17.930483437 4.819539165 12.156330373 6.691620527 5.586092181 3.638802543 3.880393428 2.031494399 68.170083202 3.509634238 3.710212049 3.035327788 2.898472597 3.515173230 2.881727640 
    </DataArray>
    <DataArray Name="Pressure" type="Float32" Format="ascii">
    819.790527219 1177.091368186 1170.075557468 1019.810628755 723.143379623 820.295508608 1457.793559817 1360.994772410 1456.399788729 1501.169513326 1480.877632668 492.968333624 512.882749224 703.900704695 752.522342862 669.282719216 1443.274995647 1201.021178829 989.464424487 1235.566246552 857.918102753 1702.512538744 1566.070705821 2001.323136012 1875.778669672 1236.367420015 1493.869196353 1276.167386200 1541.261324928 1297.390307768 1232.904244604 1462.176403075 1507.070489631 2080.120842578 2137.169617567 2213.831474002 2230.357354047 2165.229436553 1889.998696696 1619.061381206 1497.917913845 1353.437960819 1792.967279945 1526.091769537 1753.802470381 2003.840289263 1976.863333577 1735.852036436 2192.355991365 2316.290583714 2178.191897467 2385.278234057 1883.785810800 2005.896878520 1775.102692003 2016.452195942 1565.009469000 1739.224468723 1955.921900993 1862.132794213 2335.212026377 2081.981707666 2175.041308284 2123.631743222 2097.940104245 1429.351928136 1829.544094128 1897.750988688 1649.294323172 1572.139745959 1911.913201177 1700.682101050 1581.547512313 1730.879291368 1780.050354225 2102.043837405 2055.339403530 1907.662487555 2025.295509362 1619.439201454 1531.028193984 1451.353895336 1764.785739083 1688.379501948 1732.826723474 1698.597784133 1315.052549746 1101.021538555 1070.364048911 1149.963922803 1163.812663941 1414.578240772 1550.829263183 1696.053444377 1431.530578341 1053.203235799 662.939494309 816.438201771 803.751194564 1206.724105369 1234.844364607 611.343344852 74.214465631 984.348624878 1187.167016643 1037.224921792 1265.660827139 1142.089598497 741.560272091 636.298575067 879.733218742 127.700434222 967.534109189 928.064917355 450.081927176 858.477835120 218.476871119 952.089617037 1795.984392373 873.469627531 760.934252405 202.918669112 -103.035744162 291.799781774 307.213050966 617.672495892 439.870138472 262.950603792 552.887405739 676.590477695 407.801274210 494.843517877 927.280634986 589.882587518 384.267147078 547.883738982 347.927938416 1316.129288848 1149.565497481 552.661332034 651.354234118 1080.072049134 322.682760906 286.332071853 1183.495695092 1118.719243950 906.557212702 1123.180762170 1294.690696427 1232.558934048 1380.125385102 1342.169344756 1202.201625053 1342.905682599 1135.010235225 1144.065408665 406.123338721 979.821831740 454.933912788 219.380672006 224.616256106 471.859374829 332.384489576 334.498607806 1253.972468435 1003.849805393 158.311166612 996.110789806 104.500417405 -81.541683934 1067.871984604 1073.287932415 1649.457986647 1323.602523664 1574.260336292 1560.223781063 1525.411117960 1581.748572834 1297.084796270 1247.772968504 1046.768645650 1389.462978509 998.244085221 935.342761927 1142.570285228 973.273248441 903.727189257 665.051518612 852.741642006 855.846355475 844.372977536 1060.082915473 852.222929479 1235.681038486 1247.589556801 1085.317472466 1375.586669695 1409.397620903 1115.594787015 738.305357503 574.576086975 1054.661318212 1157.804638247 1314.928943942 806.646480548 1132.570908719 505.639417098 213.973064550 183.045376252 754.638818969 234.224109097 236.211091338 498.138838793 812.599068972 809.359871625 -69.385865117 289.671554345 612.336886312 -100.707414914 112.164697606 511.338005505 34.852699285 331.021129317 523.066064304 63.283185105 1391.342794372 933.147910934 914.534014170 246.730329847 943.400606061 818.025787510 362.453261841 446.499704256 975.938688346 314.460881149 688.903892155 187.245305065 1255.188767838 -414.303140220 229.380136819 74.257423795 184.563984181 675.725321488 318.450102930 165.791208548 935.611508724 1005.686644563 56.000152869 214.070208228 245.809511286 
    </DataArray>
    <DataArray Name="Density" type="Float32" Format="ascii">
    2040.590350716 2040.510312357 2040.312741980 2040.216776147 2040.361646102 2040.322546442 2040.195366243 2040.171727918 2040.151461683 2048.907776256 2041.764039470 2040.333123466 2040.358313229 2040.187577105 2040.060236573 2040.096883872 2040.116599880 2040.114533187 2039.997150809 2039.991474738 2040.075675942 2052.846098843 2040.146404512 2054.617419968 2040.119548423 2039.996538606 2040.088299063 2056.295156641 2039.933637327 2045.226730217 2040.016726134 2039.909048380 2040.155668699 2040.115529654 2061.518765978 2040.214937992 2068.258402456 2040.183348667 2039.915366495 2039.923875956 2056.802416097 2040.011103296 2040.115455708 2039.939549295 2039.926748487 2039.991741970 2042.937847623 2053.668302137 2040.416041060 2076.027665006 2040.391934880 2080.727998416 2054.420668480 2039.756511445 2040.016794279 2048.349107739 2040.094121739 2059.199915141 2052.524915729 2039.991120605 2087.821207613 2040.445631318 2066.246674369 2071.028164119 2040.187508595 2040.628744972 2039.912555732 2045.864580993 2040.295271538 2050.962820558 2048.873548327 2051.238037027 2039.660560000 2040.167905048 2041.255441122 2070.129540613 2048.611446873 2048.218824035 2040.128791931 2040.199393403 2039.901982685 2047.246324893 2039.940906276 2040.388600227 2039.493870638 2039.673352393 2054.666827838 2043.634132039 2039.567458919 2040.006749148 2040.402113198 2075.380819063 2080.089284109 2039.409585286 2064.709728522 2039.820902454 2068.023131775 2040.974447242 2039.876089737 2054.479029376 2043.110425513 2040.921861608 2041.953207824 2039.638680681 2040.067692682 2164.235818593 2153.598759341 2039.646814365 2041.078785695 2040.486992779 2039.520261539 2040.902797134 2040.593477980 2038.801809463 2040.538354059 2039.132247425 2040.494479371 2039.982145703 2037.813573612 2039.791331111 2040.327453685 2040.772663572 2042.283455670 2040.396927416 2040.632948039 2040.287603494 2040.628069023 2040.713027377 2040.254476231 2040.050830661 2040.265444725 2040.427359255 2039.953647830 2040.144969160 2040.275386302 2039.964387295 2040.371493110 2057.963028925 2039.968859584 2040.062711163 2040.072065810 2040.040753668 2040.430398007 2040.254173495 2039.977043646 2039.992448059 2039.992329657 2043.196204497 2052.045776095 2056.299677106 2039.963403840 2040.006592037 2042.812197419 2056.402797669 2044.696355726 2040.044674638 2040.074580343 2045.152369664 2040.123935086 2040.316278912 2040.291445876 2039.995593931 2040.200908054 2039.917199379 2045.480722914 2056.441596622 2040.339376937 2040.041204877 2040.239094774 2040.569112806 2040.816124612 2048.818125108 2059.517795524 2043.371993672 2039.913477536 2051.256667727 2051.467219658 2044.416418492 2040.349546435 2047.887174025 2039.785397030 2052.211919382 2045.680053509 2081.386662273 2044.152168853 2039.793494800 2039.939277807 2070.665039811 2046.585289305 2082.650017618 2040.133592292 2060.064534268 2051.250251062 2056.598864640 2044.755713517 2039.860862629 2040.527604326 2039.936185395 2048.549830048 2046.412973176 2041.253776161 2064.455365712 2046.072068923 2040.707003752 2040.174440359 2047.590792807 2066.272902332 2074.444095547 2080.049758223 2040.669575793 2040.315707088 2057.180869308 2123.189233417 2040.644163988 2113.552947530 2040.476446613 2039.963946072 2083.170195413 2040.817856446 2040.366765560 2066.580662780 2040.675681468 2123.085146290 2054.272609871 2040.818066785 2048.130080133 2057.129127441 2061.262241565 2084.018773342 2039.708277423 2041.124111588 2040.090394231 2090.346908249 2051.549878476 2053.953842061 2055.019336555 2040.717985538 2064.931388922 2042.850765943 2040.102929702 2040.978338439 2040.488599856 2039.336267453 2046.872235402 2041.000295294 2082.062479083 2038.095053242 2041.002959129 2040.885195343 2040.166349869 
    </DataArray>
    <DataArray Name="Velocity" type="Float32"  NumberOfComponents="3" Format="ascii">