<?xml version="1.0"?>
<VTKFile type="PolyData" version="0.1" byte_order="LittleEndian">
 <PolyData>
  <Piece Name ="SoilBlock" NumberOfPoints="250" NumberOfVerts="250">
   <Points>
    <DataArray Name="Position" type="Float32"  NumberOfComponents="3" Format="ascii">
    -1.62132 4.54122 0 1.68343 0.509238 0 1.70558 0.512182 0 1.72704 0.510151 0 1.74389 0.509898 0 1.70751 0.530679 0 1.72701 0.539571 0 1.74947 0.525005 0 1.74058 0.552233 0 1.77206 0.507943 0 1.79207 0.510321 0 1.81227 0.512128 0 1.82982 0.515051 0 1.76672 0.53148 0 1.78613 0.557807 0 1.78524 0.532874 0 1.80434 0.537106 0 1.76174 0.555126 0 1.82226 0.543155 0 1.84118 0.545816 0 1.8492 0.520064 0 1.88787 0.532036 0 1.86026 0.550823 0 1.88099 0.557373 0 1.86707 0.525902 0 1.93043 0.544807 0 1.90652 0.538235 0 1.90204 0.555984 0 1.95497 0.549315 0 1.97274 0.553303 0 2.01653 0.544067 0 1.99262 0.562347 0 1.99683 0.549997 0 2.0356 0.537074 0 2.09405 0.512308 0 2.07283 0.554087 0 2.05265 0.55364 0 2.05475 0.528794 0 2.07515 0.528686 0 2.11253 0.519299 0 2.09487 0.541574 0 2.11439 0.546138 0 2.14955 0.515408 0 2.13044 0.511435 0 2.16657 0.510355 0 2.20352 0.510802 0 2.18535 0.512579 0 2.14146 0.556402 0 2.15742 0.536441 0 2.13442 0.535447 0 2.17961 0.533052 0 2.1948 0.555874 0 2.202 0.532478 0 2.2156 0.548607 0 2.17644 0.55328 0 2.24014 0.509673 0 2.26173 0.509115 0 2.22094 0.510717 0 2.304 0.510049 0 2.28189 0.509475 0 2.25409 0.563889 0 2.24198 0.550739 0 2.24749 0.530647 0 2.26542 0.530221 0 2.22708 0.531712 0 2.28196 0.536625 0 2.2985 0.5285 0 2.26703 0.55479 0 2.30223 0.551605 0 2.28292 0.558426 0 2.32477 0.509082 0 2.34934 0.509025 0 2.37638 0.507631 0 2.3185 0.533301 0 2.35603 0.543688 0 2.33829 0.52548 0 2.35739 0.562912 0 2.33623 0.546313 0 2.32002 0.553895 0 2.37457 0.562104 0 2.36338 0.525901 0 2.37576 0.544243 0 2.39497 0.55793 0 2.39418 0.537622 0 2.38736 0.52195 0 2.40448 0.506022 0 2.42951 0.506193 0 2.44445 0.517781 0 2.47643 0.517664 0 2.4609 0.507438 0 2.49422 0.513859 0 2.41225 0.522978 0 2.4272 0.548751 0 2.41071 0.549383 0 2.42863 0.528073 0 2.44271 0.544704 0 2.45703 0.53914 0 2.48527 0.546615 0 2.47192 0.539771 0 2.51331 0.511026 0 2.53488 0.512392 0 2.57146 0.511848 0 2.55351 0.513146 0 2.54033 0.545657 0 2.50084 0.538955 0 2.51553 0.544897 0 2.52627 0.532593 0 2.57095 0.540507 0 2.58522 0.531809 0 2.55529 0.538896 0 2.62461 0.508801 0 2.5931 0.509122 0 2.64998 0.508599 0 2.67667 0.50807 0 2.61459 0.53955 0 2.63127 0.54389 0 2.59734 0.547108 0 2.6092 0.519116 0 2.6394 0.526707 0 2.65534 0.5441 0 2.67688 0.542133 0 2.66529 0.524139 0 2.70883 0.509387 0 2.74715 0.516864 0 2.7641 0.507976 0 2.72887 0.509503 0 2.69547 0.539216 0 2.71507 0.539113 0 2.69394 0.5183 0 2.7508 0.540844 0 2.73045 0.534064 0 2.7677 0.535227 0 1.76918 0.576311 0 1.78179 0.594278 0 1.80463 0.595691 0 1.80102 0.568694 0 1.84197 0.582341 0 1.82282 0.576508 0 1.80267 0.627181 0 1.84615 0.617298 0 1.82509 0.653275 0 1.82138 0.614649 0 1.86397 0.592527 0 1.88633 0.600568 0 1.90296 0.60937 0 1.92808 0.564766 0 1.91919 0.590652 0 1.86828 0.625823 0 1.8533 0.655206 0 1.88437 0.627859 0 1.97648 0.582306 0 1.98892 0.600556 0 1.94848 0.571602 0 2.01442 0.571173 0 2.0194 0.599404 0 2.03409 0.56544 0 2.03003 0.599638 0 1.88693 0.696994 0 1.86291 0.700224 0 1.8911 0.657236 0 1.96291 0.673085 0 2.02239 0.690666 0 2.00012 0.669963 0 1.9915 0.669243 0 2.01118 0.718714 0 1.93117 0.779656 0 1.95929 0.796794 0 1.99794 0.790368 0 1.99212 0.775489 0 1.96564 0.839751 0 1.97466 0.798211 0 1.98227 0.820286 0 1.95013 0.825734 0 1.95936 0.804524 0 2.02387 0.961437 0 2.009 0.990609 0 2.06483 0.581579 0 2.04818 0.598152 0 2.10621 0.593492 0 2.12391 0.569353 0 2.09874 0.566379 0 2.08559 0.584158 0 2.11934 0.60268 0 2.06065 0.619953 0 2.08148 0.621446 0 2.09618 0.630342 0 2.09351 0.647819 0 2.12689 0.626769 0 2.11722 0.635425 0 2.16109 0.60217 0 2.15546 0.584937 0 2.16065 0.564292 0 2.13537 0.585694 0 2.17583 0.579174 0 2.21118 0.56888 0 2.19431 0.57666 0 2.18232 0.605012 0 2.19174 0.593478 0 2.21195 0.593997 0 2.15493 0.61182 0 2.13795 0.610639 0 2.07499 0.681646 0 2.0584 0.667836 0 2.23031 0.565872 0 2.25803 0.582463 0 2.24317 0.585195 0 2.22638 0.589321 0 2.30014 0.570275 0 2.29174 0.577798 0 2.27619 0.582684 0 2.32302 0.573335 0 2.342 0.565303 0 2.04846 0.984718 0 2.78358 0.514436 0 2.80134 0.508838 0 2.82293 0.509479 0 2.84439 0.508834 0 2.80538 0.536399 0 2.78607 0.537311 0 2.82174 0.529733 0 2.85744 0.529505 0 2.83986 0.534858 0 2.86757 0.507495 0 2.89115 0.512287 0 2.93586 0.509056 0 2.91281 0.51017 0 2.89503 0.535727 0 2.875 0.530248 0 2.94073 0.529651 0 2.91861 0.532907 0 2.96085 0.50985 0 2.98546 0.510419 0 3.03442 0.509979 0 3.00987 0.5107 0 2.98542 0.531266 0 2.9618 0.530869 0 3.0405 0.530117 0 3.01196 0.531171 0 3.05984 0.508314 0 3.08812 0.506189 0 3.11926 0.515531 0 3.06908 0.527242 0 3.09592 0.524749 0 3.16755 0.512575 0 3.19128 0.516872 0 3.21404 0.510236 0 3.14425 0.518085 0 3.26239 0.506674 0 3.23889 0.515698 0 3.29248 0.508405 0 
    </DataArray>
   </Points>
   <PointData  Vectors="vector">
    <DataArray Name="SortedParticle_ID" type="Int32" Format="ascii">
    0 1 2 3 4 5 6 7 8 9 10 11 12 13 14 15 16 17 18 19 20 21 22 23 24 25 26 27 28 29 30 31 32 33 34 35 36 37 38 39 40 41 42 43 44 45 46 47 48 49 50 51 52 53 54 55 56 57 58 59 60 61 62 63 64 65 66 67 68 69 70 71 72 73 74 75 76 77 78 79 80 81 82 83 84 85 86 87 88 89 90 91 92 93 94 95 96 97 98 99 100 101 102 103 104 105 106 107 108 109 110 111 112 113 114 115 116 117 118 119 120 121 122 123 124 125 126 127 128 129 130 131 132 133 134 135 136 137 138 139 140 141 142 143 144 145 146 147 148 149 150 151 152 153 154 155 156 157 158 159 160 161 162 163 164 165 166 167 168 169 170 171 172 173 174 175 176 177 178 179 180 181 182 183 184 185 186 187 188 189 190 191 192 193 194 195 196 197 198 199 200 201 202 203 204 205 206 207 208 209 210 211 212 213 214 215 216 217 218 219 220 221 222 223 224 225 226 227 228 229 230 231 232 233 234 235 236 237 238 239 240 241 242 243 244 245 246 247 248 249 
    </DataArray>
    <DataArray Name="OriginalID" type="Int32" Format="ascii">
    55 0 1 2 4 3 5 7 8 6 9 12 16 10 14 13 17 11 21 26 20 30 31 37 25 42 36 43 49 56 72 65 64 81 110 101 91 90 100 120 111 121 140 130 150 169 160 132 141 131 151 162 161 171 152 186 194 178 208 201 163 188 179 187 170 195 202 196 203 204 214 220 225 209 221 215 97 217 216 135 226 227 89 235 238 230 234 236 106 242 107 241 116 144 232 125 164 98 182 126 197 128 127 99 145 173 155 210 231 108 156 191 138 183 136 174 117 190 166 109 118 137 157 165 184 167 146 119 222 129 211 175 15 19 23 18 27 22 24 33 29 28 32 38 44 50 51 39 34 45 58 59 57 73 66 82 74 40 35 60 67 84 75 52 85 41 76 69 77 48 53 54 47 46 62 61 92 83 113 122 112 102 123 93 103 114 70 86 78 115 143 142 133 153 172 154 71 134 79 104 95 63 94 180 105 96 87 189 181 124 80 88 68 205 212 223 239 147 139 148 198 149 244 159 199 176 158 228 192 168 218 200 233 213 177 206 193 185 240 246 224 207 219 237 243 245 229 248 247 249 
    </DataArray>
    <DataArray Name="ErodedLabel" type="Int32" Format="ascii">
    0 0 1 1 1 1 1 0 1 0 0 1 1 1 1 1 0 1 1 0 1 1 0 0 1 1 1 1 0 1 1 1 1 1 1 0 1 1 1 1 1 0 0 1 1 0 0 1 0 1 0 1 0 0 0 0 0 0 0 0 1 1 0 0 0 0 0 1 1 1 0 0 0 0 1 0 1 1 1 1 0 1 1 1 0 0 0 1 1 1 1 1 1 1 1 1 1 1 1 1 1 1 1 1 1 1 1 1 1 1 1 1 1 1 1 1 1 1 1 1 1 1 1 1 1 0 1 1 1 1 1 1 1 1 1 1 1 1 1 1 1 1 1 1 1 1 1 1 1 1 1 1 1 1 0 0 1 1 1 1 1 1 1 1 1 1 1 1 1 1 1 1 1 1 1 1 0 1 1 0 1 1 1 1 1 1 1 1 1 1 1 0 1 1 1 1 1 1 1 1 1 1 1 1 1 1 1 1 1 1 1 1 1 1 1 1 1 1 1 1 1 1 1 1 1 1 1 1 1 1 1 1 1 1 1 1 1 1 1 1 1 1 0 1 1 1 1 1 1 1 
    </DataArray>
    <DataArray Name="Indicator" type="Int32" Format="ascii">
    0 1 1 0 0 1 1 0 1 0 0 1 1 0 1 1 1 1 1 1 1 1 1 1 1 1 1 1 1 1 1 1 1 1 1 1 1 1 1 1 1 1 0 0 0 0 0 1 0 1 0 0 0 0 0 0 0 0 0 0 1 0 0 0 0 0 0 0 0 1 0 0 0 0 1 0 1 1 1 1 0 1 1 1 0 0 0 0 1 0 0 0 1 1 1 1 1 1 1 0 0 0 0 1 1 1 1 1 1 1 0 0 0 0 1 1 1 1 1 1 1 1 0 0 0 0 1 1 1 1 1 1 1 1 1 1 1 1 1 1 1 1 1 1 1 1 1 1 1 1 1 1 1 1 1 1 1 1 1 1 1 1 1 1 1 1 1 1 1 1 1 1 1 1 1 1 1 1 1 1 1 1 1 1 1 1 1 1 1 1 0 0 1 1 0 1 1 1 1 1 1 1 1 0 1 1 1 1 1 1 1 1 1 0 0 1 0 1 1 1 1 1 0 0 1 0 1 1 1 1 1 1 1 1 1 1 1 1 1 1 1 1 1 1 1 1 1 1 1 1 
    </DataArray>
    <DataArray Name="VerticalStress" type="Float32" Format="ascii">
    -8301022.701409385 -930.515691296 -1411.590464433 -819.864149432 -1260.662606759 -875.368374438 -1373.048823490 -1064.565992251 -293.219183984 -1298.694098441 -1744.918841153 -1391.185764866 -1112.239017217 -1624.697473241 -40.964381707 -1840.696191618 -1821.866676692 -1993.163880524 -730.475270846 -1061.109435422 680.670459893 664.823798408 -324.247325048 -431.769214104 987.373009457 195.974654778 1010.906051283 -1185.434975969 -297.035392916 311.682546271 626.204063975 -1192.833035143 674.923052943 349.677754121 -1148.453138921 134.015324642 -359.836412055 454.712611276 13.590085994 -1074.853486472 5.131729020 -1409.633532948 -2512.651287898 -2468.718745002 -2943.713215597 -2414.039350044 -2904.836623309 -2409.330023872 -3000.978911978 -1825.360585844 -2651.436094917 -2148.500948913 -2022.581343473 -1491.730931607 -1637.785690566 -2161.891843143 -1787.916880330 -2253.634997586 -1871.470876197 -1683.506519434 -227.182125169 -1373.904503414 -1471.642617520 -1650.725682778 -2005.094867784 -1243.612619777 -1612.421046414 -1220.766316319 -1469.401911919 11.822014604 -1848.846356811 -2051.818185559 -1815.718088215 -1275.203800244 -573.116693487 -1732.085038617 -204.161024757 -680.201420417 -256.074059892 -69.164273809 -1153.888676359 -939.741298705 -160.596761962 -318.841252321 -1390.170742728 -1553.723521179 -1332.489096847 -977.972176956 -1075.760818389 -1199.928716422 -1335.508067715 -784.600612920 -272.810629903 -453.592240267 -482.928282033 -272.795453850 -500.414554332 -205.390134759 -325.972792343 -1244.558216080 -1300.739089467 -1156.623408818 -1048.658289108 -141.618571582 -559.161136970 -56.808382283 -743.416997677 -164.223105626 -614.622557301 -499.583500426 -1169.790746557 -1204.796643210 -1126.773310122 -1103.906412375 -322.667850767 -163.911988847 -220.627789834 -788.205671551 -766.541662593 -220.182302115 -313.783517815 -573.785508784 -964.689730717 -948.472605356 -997.258762695 -991.464574325 -261.358826832 -389.320730764 -822.670665389 -194.959945883 -336.561050325 -299.387080226 -1070.155329551 -478.146155862 -61.337467523 -1545.873836151 -231.807103715 243.596331032 -62.691668546 642.936524223 1059.704035686 -465.213000481 689.569824457 -159.568626407 732.312082450 725.630162466 794.268928189 -83.555177904 812.495069693 638.332927995 450.818006682 288.844531221 272.641710314 10.770217292 -491.610470894 114.654767143 499.387545135 987.511115645 -622.921822655 1518.245199749 157.890337757 1042.939778497 990.542709171 -389.363531625 286.446971872 1583.582413022 23.542661228 159.645835924 26.498066894 -45.404377436 94.356156818 64.210994457 198.313195757 153.598449129 5092.454698072 705.855846097 -287.894103330 271.026364594 -1507.702044436 -936.787784730 -419.011227531 135.478412867 107.623494894 -341.154406187 99.662436244 -583.261032649 281.883010051 -818.622920389 232.425670583 -826.443124980 -1024.742958526 -2175.788699203 -1221.272773511 -575.263049391 -275.617402853 -645.388071284 -235.207318906 -715.446401174 -418.195962424 102.289821004 -515.533867186 -33.952829880 -1018.425430452 -443.701788808 -530.551255022 -501.587931776 -697.922052949 -458.989536703 -264.373754104 -512.872579024 -348.537773991 -297.878291976 933.730509049 -898.746575980 -882.888720865 -906.002781808 -822.613709025 -313.545031971 -252.668582809 -334.718460268 -379.668607340 -254.616800572 -855.366603153 -965.911365939 -839.017817974 -818.548288461 -229.948020966 -220.260487844 -243.650444429 -310.502392584 -887.148757366 -851.161705230 -776.864588291 -827.760987329 -214.036437609 -213.849819773 -342.558921298 -240.744978780 -720.203389843 -691.139138846 -907.155357884 -416.233181035 -393.194327930 -676.347769179 -592.336523944 -548.796406055 -765.529675958 -403.890794526 -534.454734154 -385.464030601 
    </DataArray>
    <DataArray Name="FrictionAngle" type="Float32" Format="ascii">
    0.001598570 0.346429457 0.363562448 0.380442623 0.009193701 0.234749857 0.063124620 0.072761941 0.042465558 0.523598776 0.523598776 0.523598776 0.523598776 0.061195674 0.032220505 0.043173624 0.523598776 0.029398198 0.523598776 0.523598776 0.523598776 0.523598776 0.523598776 0.523598776 0.523598776 0.523598776 0.523598776 0.523598776 0.523598776 0.523598776 0.523598776 0.523598776 0.523598776 0.523598776 0.523598776 0.523598776 0.523598776 0.523598776 0.523598776 0.523598776 0.523598776 0.523598776 0.523598776 0.523598776 0.523598776 0.523598776 0.523598776 0.523598776 0.523598776 0.523598776 0.523598776 0.523598776 0.523598776 0.523598776 0.523598776 0.523598776 0.523598776 0.523598776 0.523598776 0.523598776 0.001891782 0.160656486 0.523598776 0.523598776 0.523598776 0.523598776 0.523598776 0.004937977 0.002984754 0.000718389 0.523598776 0.523598776 0.523598776 0.523598776 0.001394883 0.523598776 0.001091330 0.000007261 0.000916117 0.001155393 0.523598776 0.000038962 0.001071765 0.000506428 0.389579012 0.523598776 0.523598776 0.000015688 0.000773577 0.003784792 0.000752083 0.019980990 0.000695550 0.001036624 0.000347986 0.000489352 0.000697687 0.000770645 0.000511657 0.000707368 0.000665718 0.000913264 0.000845134 0.000714146 0.000404396 0.000467100 0.000664842 0.001068958 0.000876764 0.000688548 0.001108214 0.000379773 0.001040683 0.001164112 0.000814232 0.000557142 0.000806610 0.000448444 0.000655985 0.000809930 0.000376925 0.000667802 0.000643981 0.000961647 0.001380378 0.001213036 0.000781616 0.000739789 0.000764392 0.000796697 0.000072833 0.000863137 0.025921948 0.024557661 0.022393070 0.044797051 0.523598776 0.077709276 0.011765319 0.035914394 0.010049622 0.019228326 0.523598776 0.523598776 0.523598776 0.523598776 0.523598776 0.523598776 0.014623221 0.523598776 0.523598776 0.523598776 0.523598776 0.523598776 0.523598776 0.523598776 0.523598776 0.006010232 0.007117836 0.000000439 0.523598776 0.020333741 0.021929478 0.044536924 0.001753801 0.004420784 0.004577713 0.003077091 0.005683069 0.002027928 0.005730143 0.002464640 0.002719599 0.003237249 0.001723160 0.001052432 0.523598776 0.523598776 0.523598776 0.523598776 0.523598776 0.523598776 0.001017568 0.058460360 0.010771860 0.000745689 0.002651394 0.002530827 0.002047681 0.001444175 0.000983146 0.523598776 0.023503870 0.001364159 0.003198308 0.002027759 0.002270526 0.002218319 0.002058234 0.002333680 0.002148160 0.003662235 0.001775010 0.000116207 0.001043880 0.001621022 0.001788648 0.001245321 0.000133861 0.001587633 0.001516591 0.001094145 0.000556412 0.000790914 0.001598785 0.001337636 0.000590060 0.000904195 0.000841578 0.000948874 0.000404870 0.000835174 0.003959196 0.000863330 0.000189087 0.000195464 0.001118920 0.000985486 0.001109403 0.001021448 0.000119094 0.000575746 0.001524227 0.001348915 0.001244053 0.001279327 0.001410530 0.001265429 0.001582152 0.002014125 0.001571728 0.001380243 0.001374685 0.002232672 0.002377080 0.001583388 0.001626969 0.001236173 0.001063330 0.000871738 
    </DataArray>
    <DataArray Name="Cohesion" type="Float32" Format="ascii">
    1.107522428 250.099435682 263.601160298 277.076893204 6.369762512 165.694380453 43.792201815 50.500103890 29.438699883 400.000000000 400.000000000 400.000000000 400.000000000 42.450611002 22.330748938 29.930162480 400.000000000 20.373538525 400.000000000 400.000000000 400.000000000 400.000000000 400.000000000 400.000000000 400.000000000 400.000000000 400.000000000 400.000000000 400.000000000 400.000000000 400.000000000 400.000000000 400.000000000 400.000000000 400.000000000 400.000000000 400.000000000 400.000000000 400.000000000 400.000000000 400.000000000 400.000000000 400.000000000 400.000000000 400.000000000 400.000000000 400.000000000 400.000000000 400.000000000 400.000000000 400.000000000 400.000000000 400.000000000 400.000000000 400.000000000 400.000000000 400.000000000 400.000000000 400.000000000 400.000000000 1.310666502 112.273691886 400.000000000 400.000000000 400.000000000 400.000000000 400.000000000 3.421158385 2.067904064 0.497714651 400.000000000 400.000000000 400.000000000 400.000000000 0.966403606 400.000000000 0.756096125 0.005030760 0.634704745 0.800480245 400.000000000 0.026993536 0.742540521 0.350863942 284.446307020 400.000000000 400.000000000 0.010868880 0.535950282 2.622193201 0.521058814 13.845078458 0.481891595 0.718194775 0.241091738 0.339033063 0.483371470 0.533918473 0.354486475 0.490079297 0.461223191 0.632727740 0.585525853 0.494774643 0.280173506 0.323616681 0.460616447 0.740596323 0.607440046 0.477040412 0.767793181 0.263114280 0.721006626 0.806520641 0.564116259 0.385999223 0.558835763 0.310690909 0.454479685 0.561136431 0.261141022 0.462666847 0.446163128 0.666248729 0.956354779 0.840416250 0.541519403 0.512541238 0.529586677 0.551967648 0.050460276 0.597998861 17.963275721 17.017467772 15.516967596 31.057084839 400.000000000 53.947200454 8.151628321 24.892925684 6.962817024 13.323416931 400.000000000 400.000000000 400.000000000 400.000000000 400.000000000 400.000000000 10.131986668 400.000000000 400.000000000 400.000000000 400.000000000 400.000000000 400.000000000 400.000000000 400.000000000 4.164060807 4.931464657 0.000304479 400.000000000 14.089571215 15.195624099 30.876503798 1.215070423 3.062829279 3.171554701 2.131877869 3.937388294 1.404991396 3.970002765 1.707555867 1.884197796 2.242839955 1.193841137 0.729146228 400.000000000 400.000000000 400.000000000 400.000000000 400.000000000 400.000000000 0.704991955 40.548729018 7.463252516 0.516628656 1.836944114 1.753412315 1.418677164 1.000554626 0.681143918 400.000000000 16.286958335 0.945117347 2.215860372 1.404874778 1.573069002 1.536898944 1.425988597 1.616824159 1.488291358 2.537282387 1.229764588 0.080510728 0.723221304 1.123078044 1.239212776 0.862784438 0.092741886 1.099945488 1.050726030 0.758046139 0.385493648 0.547961466 1.107671627 0.926741862 0.408805787 0.626445020 0.583062419 0.657399505 0.280502416 0.578625348 2.743025629 0.598132777 0.131003451 0.135421481 0.775210497 0.682764845 0.768617028 0.707679848 0.082510696 0.398888266 1.056016031 0.934556482 0.861905916 0.886344345 0.977244621 0.876715710 1.096147858 1.395428604 1.088926190 0.956261062 0.952410348 1.546842996 1.646892558 1.097004235 1.127198380 0.856446230 0.736697046 0.603957938 
    </DataArray>
    <DataArray Name="Pressure" type="Float32" Format="ascii">
    8290635.727575065 804.106670944 1417.141591774 743.737740888 1265.219723661 793.481917234 1525.676681426 1089.332237302 275.248056769 715.249046875 1031.911706734 721.944833884 498.593736371 1548.531844755 -692.820323028 1762.774578655 1323.772098820 1915.794472678 883.316750306 1162.765564902 -692.820323028 -642.221297517 694.905592925 673.389743213 -692.820323028 -171.665400038 -692.820323028 552.113027006 42.804719078 -408.328394823 -692.820323028 549.475202512 -624.222614703 -692.820323028 776.232375706 137.452168630 22.345700471 -692.820323028 -692.820323028 479.205851576 -238.698789211 747.927327757 1463.625288695 1482.727702235 1738.767104034 1402.662147266 1790.770973659 1418.542370243 1853.183859428 1040.709550575 1621.903598967 1366.088509110 1368.197464845 1124.645464963 1018.552357328 1263.826713023 1387.589537654 1330.892576928 1539.489890750 1225.720058829 226.650676154 1096.510563462 1170.738261237 1350.106816842 1532.099071527 1148.726749075 1323.999122427 1218.382456866 1471.874251684 -20.060822785 1240.827068904 1458.860148025 1410.713518855 1137.680840882 569.817674446 1501.673089232 208.515852679 689.244087271 264.617657905 68.455655610 912.655366030 934.146789166 161.206274095 303.086479294 1018.199105059 1326.904518099 1023.730106227 984.537078609 1078.218115636 1197.499322174 1339.783678448 759.271666392 270.084000953 451.784163950 484.258300009 269.977039190 501.557334835 205.082985099 328.222612490 1243.731587998 1300.847711981 1152.233268369 1044.970180236 139.573769581 561.966298344 56.088388525 743.767219911 159.591490877 613.744976566 498.717370517 1166.638507037 1198.609357623 1121.364775357 1100.026123271 319.196600313 159.917204429 216.613482263 783.737103744 764.518011199 217.306141152 311.214332327 568.217239237 961.107958442 942.642775176 993.989504238 986.162579274 257.439278513 380.547207663 817.572181261 189.606995543 332.004995857 298.528933699 1064.166535179 416.605203078 45.210691327 1464.964558845 992.419667462 -178.386342083 28.732232078 -692.820323028 -692.820323028 433.798248548 -692.820323028 273.013401145 -692.820323028 -692.820323028 -692.820323028 77.206622678 -692.820323028 -692.820323028 -692.820323028 -692.820323028 -692.820323028 -200.801049100 79.411800460 -49.130354378 -399.755640511 -692.820323028 579.525105153 -692.820323028 -230.835967912 -692.820323028 -692.820323028 407.401545605 -692.820323028 -692.820323028 -44.215289299 -147.354712314 23.641412692 65.364197650 -109.255455564 -54.836810018 -173.061418591 -170.965364569 -692.820323028 -675.187030287 974.699557802 25.267582560 1089.655942093 1205.087959876 1299.506221835 242.580760658 -98.840074349 331.359461279 -135.203368647 573.314457102 -277.052826464 800.523349718 -250.299372803 828.543037696 1028.765471326 1509.085211738 1209.337484331 584.129359567 273.982283683 647.928261654 239.795579031 712.952845355 417.131654732 -83.387727653 494.516589652 238.407374438 1139.328557464 443.474975091 532.285667387 501.172039487 691.692411443 453.612196289 258.786820393 512.307769478 351.109700388 303.440068168 -692.820323028 894.161730581 882.747957857 906.011533918 823.025448078 314.612056726 250.910898250 336.677854008 387.385514758 257.525348226 851.159862545 968.580489935 840.714274108 820.958147747 238.246992577 226.108418064 247.180929258 322.206180708 889.419533214 852.055793840 781.348663282 830.137363468 221.662389242 220.011528853 356.310154323 251.840276220 722.207771618 688.820576746 904.157591790 422.222713025 395.873960520 673.190023815 593.246631962 550.242680393 757.864338079 401.839322862 534.657471695 383.919582620 
    </DataArray>
    <DataArray Name="Density" type="Float32" Format="ascii">
    2040.000000000 2040.415334864 2039.636474026 2040.723591584 2039.965331939 2040.468835205 2039.159174092 2040.160302764 2041.094792802 2040.801770502 2040.284366945 2040.379402654 2040.122442408 2039.488080650 2041.884525858 2038.852130042 2039.517476695 2038.666306998 2040.129731018 2039.240274833 2040.707273232 2040.318343258 2039.842279262 2039.587344938 2039.702073598 2039.475999773 2040.192355155 2039.249696670 2039.687989980 2040.423126566 2040.113138424 2038.943449735 2040.353059951 2040.096735914 2039.778154191 2039.904196486 2039.740011720 2040.068892758 2038.404077674 2040.506621893 2040.815972095 2040.005357094 2040.291612196 2039.818256859 2040.159907880 2040.330692004 2039.927107021 2039.859346345 2039.332056405 2040.412772837 2039.771956668 2039.304627621 2040.046129856 2039.820411706 2040.487135628 2040.333510272 2040.129416182 2040.308296683 2039.951662594 2040.399434721 2191.005028272 2039.604437669 2040.179363529 2039.688750186 2039.484894913 2039.928696042 2039.843136065 2118.338812506 2148.127562698 2229.365851423 2040.414961269 2040.050979163 2040.057033938 2039.938384433 2160.555858868 2039.284800433 2040.332146823 2166.546375637 2174.164284856 2040.522881559 2040.167504277 2177.938090460 2040.348331618 2125.024133931 2039.805503959 2065.037724128 2143.659708585 2039.796796386 2039.879847293 2040.034418536 2039.775616710 2039.994093198 2040.245293035 2039.902251114 2164.990196968 2040.313762616 2040.024691061 2040.350871236 2040.338415619 2040.044771467 2039.827729026 2039.896752109 2040.106410034 2040.411635071 2039.936987124 2040.572613618 2039.789670141 2040.503024529 2039.955530783 2039.986764311 2039.944879419 2039.935958999 2039.976921442 2039.940978171 2040.219864640 2040.357919997 2040.236847362 2040.109747709 2039.798727736 2040.268182402 2040.135390446 2040.243050897 2040.070665291 2039.796699048 2040.063762702 2040.041692160 2040.297349530 2040.102251703 2039.991670317 2040.304379677 2040.281249564 2040.244663676 2039.629112365 2040.254354637 2040.177419940 2038.899039880 2039.724132150 2040.663627562 2040.251692806 2039.065230064 2039.264156202 2039.897280207 2039.709536078 2039.333796157 2038.851236763 2037.507200154 2037.519255726 2039.745312495 2038.731219113 2039.405933410 2039.538820557 2039.831170578 2036.595229355 2040.005224403 2039.715293229 2039.797207874 2040.185934808 2040.084855045 2039.871808369 2038.327513302 2040.050421934 2038.546466140 2039.844036838 2039.647992138 2039.645395246 2039.605797558 2039.865450943 2040.140546283 2039.772763802 2039.899367160 2039.912422386 2039.909069531 2039.998297799 2095.448772468 2039.049685975 2039.996510433 2039.710749908 2040.434204325 2039.601217332 2039.863712484 2039.165816463 2040.649643155 2041.082700864 2039.694655499 2040.493261509 2039.250524713 2040.362390798 2039.284735007 2040.601667895 2132.651639221 2039.761284350 2039.459047969 2039.461047364 2040.543667148 2078.850607601 2180.073340392 2040.431648524 2078.076538768 2040.220744493 2040.876248870 2040.060011365 2040.114202488 2039.901980303 2040.429854133 2039.976490282 2040.044581354 2039.733426615 2211.539148369 2066.586999562 2039.911709255 2040.154878691 2040.158459870 2039.629566955 2039.916027343 2040.075974157 2039.943325646 2040.044901518 2040.161248437 2040.251376362 2040.239604948 2040.096325191 2040.238441847 2040.030070341 2039.804303977 2040.010996459 2040.095129110 2040.225763344 2040.362014459 2040.292438796 2040.137528041 2039.915729282 2039.988443330 2040.074291488 2040.015220206 2040.255187221 2040.282706856 2040.179892538 2040.243721932 2040.142637760 2040.176764042 2040.054040408 2040.145386961 2040.245592810 2040.222196127 2040.182999165 2040.258183660 2040.173295258 2040.313129642 2040.164385632 2040.278578543 
    </DataArray>
    <DataArray Name="Velocity" type="Float32"  NumberOfComponents="3" Format="ascii">