<?xml version="1.0"?>
<VTKFile type="PolyData" version="0.1" byte_order="LittleEndian">
 <PolyData>
  <Piece Name ="SoilBlock" NumberOfPoints="250" NumberOfVerts="250">
   <Points>
    <DataArray Name="Position" type="Float32"  NumberOfComponents="3" Format="ascii">
    1.69008 0.509432 0 1.71121 0.511582 0 1.73145 0.510321 0 1.74927 0.508824 0 1.72465 0.529546 0 1.74692 0.53623 0 1.77399 0.507661 0 1.79561 0.508269 0 1.81658 0.50867 0 1.83691 0.509108 0 1.77041 0.549047 0 1.7903 0.553116 0 1.79982 0.528897 0 1.76109 0.526002 0 1.78176 0.529466 0 1.83019 0.550334 0 1.81059 0.548231 0 1.83991 0.530218 0 1.82025 0.528773 0 1.87729 0.509263 0 1.89719 0.509077 0 1.85697 0.508777 0 1.91692 0.509535 0 1.93664 0.509314 0 1.87979 0.529857 0 1.89322 0.549586 0 1.85958 0.528959 0 1.85209 0.549549 0 1.87158 0.549262 0 1.92066 0.529634 0 1.93301 0.549646 0 1.91246 0.549029 0 1.89977 0.529314 0 1.94102 0.529404 0 1.95643 0.509493 0 1.97582 0.509619 0 2.03359 0.509985 0 2.01483 0.50984 0 1.9954 0.509453 0 1.95203 0.549362 0 1.96154 0.529654 0 1.98256 0.529632 0 1.97346 0.548893 0 1.99207 0.550082 0 2.03072 0.55257 0 2.02474 0.530384 0 2.00287 0.52947 0 2.01358 0.547809 0 2.05344 0.508894 0 2.07096 0.512278 0 2.1267 0.507883 0 2.10963 0.512914 0 2.09013 0.507072 0 2.07006 0.555013 0 2.04532 0.528583 0 2.05162 0.54501 0 2.0687 0.53192 0 2.09062 0.527573 0 2.11048 0.53335 0 2.12772 0.545347 0 2.11205 0.554722 0 2.08787 0.545417 0 2.09305 0.563622 0 2.1671 0.508425 0 2.14782 0.510546 0 2.20482 0.509217 0 2.18751 0.510901 0 2.15158 0.534293 0 2.13416 0.527325 0 2.15291 0.55411 0 2.17101 0.527136 0 2.13535 0.563388 0 2.17366 0.544909 0 2.19374 0.530841 0 2.19272 0.551866 0 2.21668 0.528722 0 2.21165 0.545781 0 2.26178 0.509561 0 2.24252 0.509731 0 2.22431 0.509974 0 2.28141 0.509599 0 2.30183 0.509464 0 2.24837 0.550623 0 2.23958 0.530121 0 2.26543 0.551164 0 2.26095 0.52934 0 2.231 0.553061 0 2.29477 0.549454 0 2.28268 0.560873 0 2.27936 0.532514 0 2.29875 0.52979 0 2.34635 0.509496 0 2.32298 0.509462 0 2.37197 0.508229 0 2.40048 0.506596 0 2.3412 0.550263 0 2.31981 0.550915 0 2.31888 0.532003 0 2.35498 0.538795 0 2.33803 0.526904 0 2.39221 0.521566 0 2.36667 0.52454 0 2.36748 0.561412 0 2.38214 0.561763 0 2.37956 0.543769 0 2.39401 0.539342 0 2.42735 0.505311 0 2.45716 0.507973 0 2.48036 0.514269 0 2.41861 0.552702 0 2.40566 0.55922 0 2.41585 0.535962 0 2.44177 0.52173 0 2.45003 0.547515 0 2.42168 0.52037 0 2.43757 0.547255 0 2.46064 0.529738 0 2.48807 0.537641 0 2.47145 0.541558 0 2.53947 0.509736 0 2.50052 0.513225 0 2.51954 0.512511 0 2.5642 0.509736 0 2.49892 0.54857 0 2.53073 0.537264 0 2.51458 0.536862 0 2.57718 0.528132 0 2.55089 0.527047 0 2.54705 0.547775 0 2.56865 0.545001 0 2.61639 0.509231 0 2.58912 0.509638 0 2.64501 0.510086 0 2.66611 0.51024 0 2.63286 0.522831 0 2.60438 0.524782 0 2.61065 0.544348 0 2.59072 0.542125 0 2.62937 0.540115 0 2.64951 0.542106 0 2.67896 0.533895 0 2.6636 0.532383 0 2.68759 0.509341 0 2.71783 0.509403 0 2.76111 0.509441 0 2.74035 0.509922 0 2.71739 0.538349 0 2.69445 0.541005 0 2.70262 0.521328 0 2.73214 0.530963 0 2.74897 0.536632 0 2.76589 0.531524 0 1.85024 0.589022 0 1.82802 0.574673 0 1.80751 0.567949 0 1.8441 0.567835 0 1.86468 0.572208 0 1.88879 0.607665 0 1.88896 0.586893 0 1.87029 0.594499 0 1.88303 0.566914 0 1.93046 0.586054 0 1.92556 0.605771 0 1.90894 0.591887 0 1.90386 0.571562 0 1.92266 0.567912 0 1.90921 0.614607 0 1.93035 0.627271 0 1.96396 0.56665 0 1.96908 0.584582 0 1.94441 0.570982 0 1.9857 0.572176 0 1.94954 0.592295 0 1.96825 0.603734 0 1.99018 0.592795 0 2.02772 0.572345 0 2.00318 0.604367 0 2.00403 0.566342 0 2.02691 0.594321 0 2.01155 0.584128 0 1.96288 0.6224 0 1.98275 0.615012 0 1.94522 0.612138 0 1.95366 0.632948 0 2.01307 0.617613 0 2.028 0.616208 0 1.99199 0.627413 0 2.04908 0.603071 0 2.04895 0.564929 0 2.04848 0.583133 0 2.07004 0.573627 0 2.06669 0.596068 0 2.12485 0.602262 0 2.10126 0.594006 0 2.0843 0.58543 0 2.12471 0.581292 0 2.0903 0.609483 0 2.10962 0.607056 0 2.10782 0.575525 0 2.07289 0.612763 0 2.04052 0.612828 0 2.15487 0.599253 0 2.16917 0.566023 0 2.14035 0.60211 0 2.16486 0.584958 0 2.14538 0.579178 0 2.21039 0.586711 0 2.17936 0.600287 0 2.18378 0.572414 0 2.2019 0.569182 0 2.19558 0.592631 0 2.24226 0.574296 0 2.22199 0.569119 0 2.2588 0.578046 0 2.24281 0.59094 0 2.22379 0.589703 0 2.2733 0.577515 0 2.30502 0.574394 0 2.2908 0.57764 0 2.3153 0.565986 0 2.33471 0.57073 0 2.35179 0.565416 0 2.80756 0.5141 0 2.7849 0.507594 0 2.85427 0.509705 0 2.82929 0.510196 0 2.78283 0.529135 0 2.7996 0.537206 0 2.86132 0.531488 0 2.8226 0.536648 0 2.84169 0.53087 0 2.90327 0.510689 0 2.87899 0.510174 0 2.92815 0.510503 0 2.95412 0.509759 0 2.88247 0.532861 0 2.90637 0.532376 0 2.93176 0.532256 0 2.98186 0.508153 0 3.01655 0.506282 0 2.95795 0.530326 0 2.98316 0.529309 0 3.03452 0.522631 0 3.00514 0.522357 0 3.05504 0.512759 0 3.07916 0.516982 0 3.1261 0.516462 0 3.10157 0.510076 0 3.17911 0.508336 0 3.14884 0.506553 0 
    </DataArray>
   </Points>
   <PointData  Vectors="vector">
    <DataArray Name="SortedParticle_ID" type="Int32" Format="ascii">
    0 1 2 3 4 5 6 7 8 9 10 11 12 13 14 15 16 17 18 19 20 21 22 23 24 25 26 27 28 29 30 31 32 33 34 35 36 37 38 39 40 41 42 43 44 45 46 47 48 49 50 51 52 53 54 55 56 57 58 59 60 61 62 63 64 65 66 67 68 69 70 71 72 73 74 75 76 77 78 79 80 81 82 83 84 85 86 87 88 89 90 91 92 93 94 95 96 97 98 99 100 101 102 103 104 105 106 107 108 109 110 111 112 113 114 115 116 117 118 119 120 121 122 123 124 125 126 127 128 129 130 131 132 133 134 135 136 137 138 139 140 141 142 143 144 145 146 147 148 149 150 151 152 153 154 155 156 157 158 159 160 161 162 163 164 165 166 167 168 169 170 171 172 173 174 175 176 177 178 179 180 181 182 183 184 185 186 187 188 189 190 191 192 193 194 195 196 197 198 199 200 201 202 203 204 205 206 207 208 209 210 211 212 213 214 215 216 217 218 219 220 221 222 223 224 225 226 227 228 229 230 231 232 233 234 235 236 237 238 239 240 241 242 243 244 245 246 247 248 249 
    </DataArray>
    <DataArray Name="OriginalID" type="Int32" Format="ascii">
    0 1 2 4 3 5 6 9 12 16 8 11 13 7 10 18 14 21 17 25 30 20 36 42 31 32 26 22 27 43 44 38 37 50 49 56 81 72 64 51 57 65 58 66 83 82 73 74 90 100 130 120 110 102 91 92 101 111 121 132 122 112 113 150 140 169 160 141 131 142 151 133 152 161 162 170 171 194 186 178 201 208 188 179 196 187 180 203 204 195 202 220 214 225 230 217 216 209 221 215 238 226 145 173 227 235 234 242 197 107 99 232 236 108 241 155 126 231 210 191 127 128 156 117 174 136 166 190 109 118 183 138 157 167 222 137 119 146 211 129 175 165 184 212 239 223 147 139 205 148 149 198 24 19 15 23 28 35 34 29 33 46 47 40 39 45 41 48 59 60 52 67 53 61 68 84 77 75 85 76 62 69 54 55 70 78 63 95 93 94 103 104 96 115 114 134 79 87 123 71 86 124 153 105 154 143 97 80 163 172 88 189 181 144 89 135 116 164 125 182 98 106 159 244 199 176 228 158 206 168 192 200 218 213 233 177 185 193 240 246 207 219 229 224 237 243 247 245 249 248 
    </DataArray>
    <DataArray Name="ErodedLabel" type="Int32" Format="ascii">
    1 0 0 1 0 0 0 0 0 0 0 0 0 0 0 0 0 0 0 0 0 0 0 0 0 0 0 0 0 0 0 0 0 0 0 0 0 0 0 0 0 0 0 0 0 0 0 0 0 0 0 0 0 0 0 0 0 0 0 0 0 0 0 0 0 0 0 0 0 0 0 0 0 0 0 0 0 0 0 0 0 0 0 0 1 0 0 1 1 0 0 0 0 0 0 1 1 0 1 0 0 0 1 1 1 1 0 1 1 1 1 1 1 1 0 1 1 1 1 1 1 0 1 1 1 1 1 1 1 1 1 1 0 1 1 1 1 1 1 1 1 1 1 1 1 1 1 1 1 1 1 1 0 0 0 0 0 0 0 0 0 0 0 0 0 0 0 0 0 0 0 0 0 1 0 0 1 0 1 0 1 1 1 1 1 1 1 1 0 0 0 1 1 1 1 1 1 1 1 1 1 1 0 1 1 1 1 1 1 1 1 1 1 1 1 1 1 1 1 1 1 1 1 0 1 1 0 1 1 1 1 1 1 1 1 1 1 1 1 1 1 1 1 0 1 1 1 1 1 1 
    </DataArray>
    <DataArray Name="Indicator" type="Int32" Format="ascii">
    1 1 1 0 1 1 0 0 0 0 1 1 0 1 1 0 1 0 0 0 0 0 0 0 0 0 0 0 0 0 0 0 0 0 0 0 0 0 0 0 0 0 0 0 0 0 0 0 0 0 0 0 0 0 0 0 0 0 0 0 0 0 0 0 0 0 0 0 0 0 0 0 0 0 0 0 0 0 0 0 0 0 0 0 0 0 0 0 1 0 0 0 0 0 0 1 0 0 0 0 0 0 1 1 1 0 0 0 0 1 1 1 0 1 0 1 1 1 1 0 0 0 0 1 1 1 1 1 1 1 0 0 0 1 1 1 1 1 1 1 1 1 0 0 1 1 1 1 1 1 1 1 1 1 1 1 1 1 1 1 0 0 1 1 0 0 1 1 0 0 0 0 0 0 0 0 0 0 1 0 1 1 1 1 1 1 1 1 0 0 0 1 1 1 0 0 1 1 0 1 1 1 0 1 1 1 1 1 0 0 1 1 1 1 1 1 1 1 1 1 1 1 0 1 1 0 1 1 1 1 1 1 1 1 1 1 1 1 1 1 1 1 1 1 1 1 1 1 1 1 
    </DataArray>
    <DataArray Name="VerticalStress" type="Float32" Format="ascii">
    -716.102897161 -826.197139890 -818.518621385 -982.709648103 -472.203179783 -461.437442066 -1080.228804339 -1244.673567194 -1600.293204110 -1954.138784977 -578.903047714 -686.319674861 -1258.793098779 -905.960265799 -1115.252398001 -960.690878801 -1031.018629754 -1273.619803086 -1328.911926898 -2363.234562802 -2342.291764494 -2266.240106910 -2307.397978921 -2368.721717094 -1598.699779328 -1246.978456071 -1389.505180016 -899.178858371 -945.319659623 -2234.306171109 -1821.633195938 -1668.433162541 -1952.086332605 -2242.850551202 -2430.199019067 -2447.649501796 -2545.058413971 -2496.428120063 -2473.570380516 -1843.244909909 -2205.250835358 -2211.673539877 -1878.637591037 -1948.909176256 -1400.292751992 -1951.631417055 -2199.656777701 -1801.340337772 -2512.861003630 -2241.710458770 -2352.762567414 -2210.158566042 -2385.470858565 -1556.008619880 -1953.652191100 -1656.143803824 -2041.737781887 -2079.106533823 -1693.066009759 -1371.121218830 -1217.825705705 -1763.763780839 -1357.261431401 -2332.761316525 -2250.359016624 -2099.208819601 -2128.629611402 -1704.950973628 -1879.928722072 -1415.170494376 -2025.617299352 -1136.111511299 -1557.904306187 -1637.323013454 -1364.767801545 -1356.716596907 -1016.165766216 -1940.196697644 -1917.983974203 -2081.523259947 -1862.619944815 -1943.535498670 -1447.971829541 -1576.714431321 -1213.428056014 -1626.598976610 -1159.356470357 -790.465330447 -605.364452214 -1383.236723946 -1264.821545302 -1911.557345358 -1984.813571672 -1535.145434779 -1729.744407387 -280.260205059 -892.661268800 -1470.613025235 -1026.799039971 -1339.789486659 -1106.928926431 -964.898762361 -101.855648888 -69.174092613 -935.488138493 -333.583962519 -1747.043070988 -1278.242641000 -1610.281688100 34.580196556 -193.997141817 -989.907799305 -609.785458564 -289.732760150 -1120.996315047 -249.450796483 -582.365548262 -310.913176411 -174.996980280 -1189.821718754 -1262.583723641 -1171.474080230 -1246.777242930 -298.791831250 -354.541631472 -488.192348315 -649.277545107 -681.788399925 -238.204306150 -198.523254887 -1296.865841302 -1268.336231688 -1196.327803446 -1005.075766944 -602.255216719 -588.638534298 -281.993364206 -186.995850820 -210.977499576 -262.353990278 -228.026579584 -397.183036547 -1136.075053450 -1138.408030224 -921.084702529 -936.144865051 -161.203337625 -210.840739149 -695.358853928 -348.925441355 -285.791565292 -343.382320272 -625.038265454 -593.959697842 -553.855250004 -869.617140927 -931.985279086 -581.194458417 -940.794981342 -612.613522604 -910.627615674 -750.068016377 -807.439921342 -869.709447427 -1025.495155473 -1172.744922735 -537.013605866 -401.733026890 -1248.810430728 -882.181737752 -994.928716625 -1373.685279689 -735.522569962 -780.506556451 -982.368402889 -1145.200514435 -530.337020533 -1500.736316814 -564.417552037 -1133.877281360 -252.890432196 -238.848435511 -640.419761407 -255.568014470 -182.773575105 -255.470928862 -261.551298771 -520.747233111 -1034.633469622 -989.962632437 -1107.047471881 -597.659584742 -161.846247174 -343.259051127 -862.091703830 -873.578200300 -192.318619929 -177.965591676 -975.629994387 -109.985501393 -153.443756850 -178.151107580 -1100.183655358 -188.343197275 -595.861793173 -592.733086353 -175.370635911 -262.284335598 -409.198543000 -702.628867169 -335.035836616 -266.532233335 -978.303244548 -360.511256697 -284.177280751 -98.068495257 -72.659381383 -178.543323802 -102.065160364 -215.627064276 -226.671374691 -321.502824843 -1063.293905094 -929.790633626 -951.697137871 -955.177428081 -354.996980979 -232.707896494 -275.514997548 -296.466397096 -328.151979596 -889.504720964 -898.164634037 -859.272051025 -840.300022182 -337.048147829 -319.350947178 -370.097911362 -814.318172727 -720.403900119 -388.550680519 -375.158898576 -546.325246225 -425.609251254 -765.989444950 -586.183854519 -538.822526642 -564.384851927 -386.628603941 -408.674801122 
    </DataArray>
    <DataArray Name="FrictionAngle" type="Float32" Format="ascii">
    0.523598776 0.523598776 0.523598776 0.009689363 0.523598776 0.523598776 0.523598776 0.523598776 0.523598776 0.523598776 0.523598776 0.523598776 0.523598776 0.523598776 0.523598776 0.270095325 0.523598776 0.523598776 0.523598776 0.523598776 0.523598776 0.523598776 0.523598776 0.523598776 0.523598776 0.523598776 0.523598776 0.523598776 0.523598776 0.523598776 0.523598776 0.523598776 0.523598776 0.523598776 0.523598776 0.523598776 0.523598776 0.523598776 0.523598776 0.523598776 0.523598776 0.523598776 0.523598776 0.523598776 0.523598776 0.523598776 0.523598776 0.523598776 0.523598776 0.523598776 0.523598776 0.523598776 0.523598776 0.523598776 0.523598776 0.523598776 0.523598776 0.523598776 0.523598776 0.523598776 0.523598776 0.523598776 0.523598776 0.523598776 0.523598776 0.523598776 0.523598776 0.523598776 0.523598776 0.523598776 0.523598776 0.523598776 0.523598776 0.523598776 0.523598776 0.523598776 0.523598776 0.523598776 0.523598776 0.523598776 0.523598776 0.523598776 0.523598776 0.523598776 0.059079654 0.523598776 0.523598776 0.026878319 0.000884609 0.523598776 0.523598776 0.523598776 0.523598776 0.523598776 0.523598776 0.000007288 0.003087165 0.523598776 0.003359848 0.523598776 0.389579012 0.523598776 0.000458468 0.000534427 0.000039572 0.000635027 0.523598776 0.003784792 0.000670680 0.000877152 0.000857773 0.000394744 0.000015720 0.000752341 0.200923802 0.000747443 0.000732213 0.000995002 0.001254851 0.000379888 0.000853748 0.000925300 0.001108477 0.000892799 0.000567485 0.000854155 0.000663476 0.000913101 0.000831419 0.000378679 0.001164112 0.001040845 0.000645833 0.001235110 0.000775892 0.000672864 0.000748110 0.000785821 0.000072927 0.000808598 0.000886505 0.000983865 0.001402073 0.001688032 0.000663030 0.001588036 0.000945740 0.000875498 0.000873275 0.000970044 0.000858797 0.000411697 0.523598776 0.523598776 0.523598776 0.523598776 0.523598776 0.523598776 0.514882671 0.523598776 0.523598776 0.523598776 0.510122046 0.446908917 0.523598776 0.523598776 0.523598776 0.344927239 0.523598776 0.523598776 0.523598776 0.523598776 0.523598776 0.049941651 0.523598776 0.523598776 0.025637703 0.523598776 0.023758051 0.523598776 0.032198889 0.009601115 0.083884093 0.048236768 0.010097101 0.004196143 0.012533638 0.005000044 0.523598776 0.145203065 0.523598776 0.006085657 0.002774156 0.002364585 0.001865362 0.004259911 0.003702252 0.002866356 0.095429442 0.005625561 0.007231794 0.002739283 0.392249414 0.001461373 0.003545360 0.003919613 0.001656140 0.002451284 0.003137236 0.010661224 0.001733676 0.001788075 0.000138270 0.001678463 0.001718085 0.001756667 0.000983932 0.001054868 0.000637392 0.000656701 0.001070443 0.001025451 0.000996770 0.005583900 0.000189801 0.000196788 0.001013198 0.001202235 0.001333437 0.001065281 0.001130627 0.000586966 0.000119680 0.001395224 0.001588941 0.001311762 0.001315180 0.001471577 0.001686345 0.002143939 0.001445403 0.001464140 0.001736290 0.001669526 0.002494479 0.002922139 0.001249963 0.001921146 0.001027496 0.001423147 
    </DataArray>
    <DataArray Name="Cohesion" type="Float32" Format="ascii">
    400.000000000 400.000000000 400.000000000 6.713197749 400.000000000 400.000000000 400.000000000 400.000000000 400.000000000 400.000000000 400.000000000 400.000000000 400.000000000 400.000000000 400.000000000 191.814765006 400.000000000 400.000000000 400.000000000 400.000000000 400.000000000 400.000000000 400.000000000 400.000000000 400.000000000 400.000000000 400.000000000 400.000000000 400.000000000 400.000000000 400.000000000 400.000000000 400.000000000 400.000000000 400.000000000 400.000000000 400.000000000 400.000000000 400.000000000 400.000000000 400.000000000 400.000000000 400.000000000 400.000000000 400.000000000 400.000000000 400.000000000 400.000000000 400.000000000 400.000000000 400.000000000 400.000000000 400.000000000 400.000000000 400.000000000 400.000000000 400.000000000 400.000000000 400.000000000 400.000000000 400.000000000 400.000000000 400.000000000 400.000000000 400.000000000 400.000000000 400.000000000 400.000000000 400.000000000 400.000000000 400.000000000 400.000000000 400.000000000 400.000000000 400.000000000 400.000000000 400.000000000 400.000000000 400.000000000 400.000000000 400.000000000 400.000000000 400.000000000 400.000000000 40.979274259 400.000000000 400.000000000 18.626331270 0.612875525 400.000000000 400.000000000 400.000000000 400.000000000 400.000000000 400.000000000 0.005049498 2.138857250 400.000000000 2.327779999 400.000000000 284.446307020 400.000000000 0.317636119 0.370261969 0.027416505 0.439959365 400.000000000 2.622193201 0.464660860 0.607708903 0.594282729 0.273486889 0.010891424 0.521237472 141.108085611 0.517843736 0.507291940 0.689357977 0.869386468 0.263194176 0.591493991 0.641066959 0.767975908 0.618549751 0.393164934 0.591775859 0.459669628 0.632615337 0.576023840 0.262356785 0.806521058 0.721118588 0.447446459 0.855709723 0.537554003 0.466174092 0.518306003 0.544432648 0.050525498 0.560213096 0.614188855 0.681641941 0.971385566 1.169504175 0.459360521 1.100224437 0.655227985 0.606562853 0.605022513 0.672066699 0.594992338 0.285231886 400.000000000 400.000000000 400.000000000 400.000000000 400.000000000 400.000000000 391.988520275 400.000000000 400.000000000 400.000000000 387.646105906 332.033013531 400.000000000 400.000000000 400.000000000 248.923680756 400.000000000 400.000000000 400.000000000 400.000000000 400.000000000 34.629385743 400.000000000 400.000000000 17.766214545 400.000000000 16.463158113 400.000000000 22.315757009 6.652052057 58.253302537 33.445357372 6.995714680 2.907190016 8.684014076 3.464160675 400.000000000 101.312660437 400.000000000 4.216319132 1.921996385 1.638235920 1.292361950 2.951370609 2.565007343 1.985875347 66.316890303 3.897544439 5.010420944 1.897835641 286.610651726 1.012469937 2.456307468 2.715601294 1.147408599 1.698302864 2.173547914 7.386592667 1.201127379 1.238816178 0.095796454 1.162874446 1.190325467 1.217055777 0.681688157 0.730834345 0.441598408 0.454975829 0.741624938 0.710453698 0.690583031 3.868679768 0.131497928 0.136338389 0.701964275 0.832933378 0.923833061 0.738048408 0.783321820 0.406662293 0.082916793 0.966639946 1.100851294 0.908815741 0.911183864 1.019539526 1.168335400 1.485366628 1.001405228 1.014386833 1.202938181 1.156682630 1.728229118 2.024522817 0.865999883 1.331010531 0.711870661 0.985986149 
    </DataArray>
    <DataArray Name="Pressure" type="Float32" Format="ascii">
    1266.464736208 888.082855737 867.806635602 1070.362845370 606.997692993 440.637102902 1361.352760658 1409.902890728 1393.167642066 1321.960177870 436.926108045 427.135194929 798.541066381 704.645229650 720.742335709 714.520397753 531.240030675 1203.390659927 987.992457350 1454.827384906 1599.125426119 1361.149731263 1731.105918397 1826.265440872 1436.952212015 1184.125806384 1409.536508336 1057.620449216 1272.033313042 1258.758649646 1061.349158509 1006.994449966 1313.371755869 1353.078843188 1861.188165287 1873.832974634 1759.269219353 1818.231869358 1869.049293948 1256.758103185 1496.176937012 1473.373457622 1202.703760516 1066.680312362 1332.933435806 1538.014974167 1447.731328435 1251.229583773 1773.516175265 1665.848067501 1731.713707271 1688.956629689 1796.483625665 1091.303180647 1653.674678598 1483.780492836 1341.770240094 1491.312263291 1466.710579674 1321.909896038 1142.104742740 1207.830747020 1007.417328878 1743.463501794 1658.326574927 1611.173872389 1602.934239431 1150.059175948 1568.912701703 1054.342640945 1361.953571796 1009.669181997 1051.682807549 1423.722974611 1268.704310216 1274.867630528 1029.483626370 1419.174191393 1412.630298263 1574.004491857 1399.207321447 1415.451154072 970.485289372 1136.675953131 1154.929790796 1213.208345747 917.670696190 872.385039248 679.624607067 1316.843870851 1292.465263603 1586.396718332 1523.081759766 1403.080915309 1234.786069098 202.050418341 845.932683821 1166.564491119 1039.554957834 1067.597547617 1042.445449164 1077.126246123 104.296615402 63.495141213 1002.904859886 406.987992818 1254.121456408 1270.511152699 1611.243846446 -33.087787148 189.365093887 1042.227779851 629.550671368 292.621593443 898.578638886 258.827001381 581.521770183 309.774977048 174.943289964 1190.232407708 1264.262494238 1172.471420001 1247.234895983 298.434849188 354.998587739 488.761505600 648.927810119 681.747894590 237.058745431 198.415752903 1297.656640382 1270.839819630 1196.615594759 1005.032951183 601.587374695 588.301168846 283.102873034 188.401468361 210.926387597 261.597764471 228.624075181 397.044382626 1137.871005785 1138.795428116 921.498513915 936.509565975 163.030549584 211.693377262 695.734238764 350.126413777 285.401560188 343.208279120 267.093828608 315.753287266 388.193745760 475.365888003 581.601093388 254.746264741 418.222157647 274.280599932 876.773327361 879.850879795 410.586409329 421.292351661 846.622513426 978.846558292 118.885984340 67.625746343 1159.329942198 984.785388459 1190.804674595 854.794696905 954.506294166 764.736111486 745.008693106 1089.645828454 489.834407561 896.109814318 614.085750905 852.174765552 140.447052303 205.061066887 387.276116763 83.517539417 195.792134860 257.988545684 231.227314138 482.109292613 1092.854159417 929.327854885 822.444571321 554.170146221 168.611089712 348.611186852 808.875009854 947.866247437 202.694080053 179.509604302 936.213367715 105.339382172 133.013750383 191.270071197 794.699658551 206.324177904 583.976243520 613.361214516 171.592826855 254.634061177 407.580623308 752.665534142 339.749299219 228.693994542 970.554041028 366.833021281 277.383003248 79.331040829 96.122920555 181.514641834 116.283599780 204.399020528 209.131008411 308.665958817 1062.995554482 929.809381541 951.737637882 955.106861633 355.504091553 233.084098185 275.451743438 295.644027649 327.321539516 889.809147299 898.706179532 860.197503660 838.872740784 336.707272481 318.309522424 368.540264372 816.092253883 721.138120208 387.521659334 375.258392153 545.796153598 424.693333163 762.788929628 591.500468693 539.019658384 564.375459367 387.859024953 407.373248113 
    </DataArray>
    <DataArray Name="Density" type="Float32" Format="ascii">
    2040.440269914 2040.418372476 2040.390346029 2040.179643953 2040.366723099 2040.478931808 2040.157665374 2040.210854492 2048.957290863 2049.588595522 2040.351079516 2040.348957748 2040.077150297 2040.137106308 2040.078633475 2040.049214749 2040.088777549 2040.036787769 2040.019439562 2051.225429742 2067.938183698 2059.364686048 2064.752335714 2069.503603022 2039.984123279 2040.049445457 2040.003243124 2040.030438973 2039.974081579 2039.940464540 2040.016597651 2040.010732513 2040.028205917 2040.079647488 2071.256295326 2072.237284207 2087.626126722 2073.332837552 2077.779571274 2042.852759860 2040.012061460 2040.023210374 2041.941747234 2051.124301158 2040.216894552 2040.176061960 2040.023360631 2058.775033893 2093.525803765 2059.524833642 2086.918555536 2040.268153892 2098.453932043 2039.945453729 2039.863076813 2044.167289683 2040.195389295 2039.806591434 2040.144941069 2053.535313190 2040.312285596 2039.815599956 2039.840090913 2082.933602192 2040.209991779 2113.220468707 2089.855027125 2040.361927288 2039.803442252 2039.627873678 2046.097702730 2040.066622298 2042.102031865 2039.989245848 2065.420857512 2040.404158403 2040.601014006 2070.180160773 2095.137243548 2099.465147607 2040.403199944 2040.334133828 2039.611196655 2039.996586771 2038.957459287 2039.876354853 2039.849426303 2039.819668711 2212.418935924 2039.795732122 2039.910886758 2039.793504635 2040.044079411 2039.944681954 2040.032119339 2125.903079142 2089.469124777 2039.560308771 2038.955608505 2040.050854444 2040.166967997 2040.433399931 2041.043581506 2040.943011164 2161.215090300 2137.982539813 2162.551975548 2039.868601039 2038.664668284 2041.418770311 2040.365636028 2098.151168762 2040.825264754 2040.243465937 2070.344219802 2040.511919843 2053.208950416 2040.865235660 2040.980423599 2039.955501299 2039.930222353 2039.918972018 2039.809540479 2040.250595115 2040.682442045 2040.280121607 2040.030341869 2040.057184149 2040.418692326 2040.620864962 2039.467976387 2039.641985980 2039.570755662 2040.017346869 2040.442843929 2040.419632006 2040.272296648 2040.749544133 2040.702856976 2040.413671026 2040.867888275 2040.380665744 2039.614448736 2039.580149348 2039.926150968 2040.000822325 2040.770056130 2040.483831429 2039.985993261 2040.515743065 2040.437528219 2040.459338917 2040.274632450 2040.353441018 2040.306695737 2040.136755893 2040.028954755 2040.192468794 2040.032690285 2040.368710051 2040.072420476 2043.185143306 2039.806053633 2040.149036189 2039.956327564 2041.726538039 2040.429470725 2040.378062086 2060.732372009 2070.892504455 2040.049389864 2040.077528929 2039.940873533 2133.105263099 2042.809960005 2039.894106729 2148.186491376 2040.073597502 2116.905001845 2059.164312305 2049.300549623 2093.029022365 2065.465464737 2040.363979211 2040.578343339 2105.558163000 2040.196003966 2197.412806587 2052.963975383 2039.432827342 2040.210277239 2101.700648528 2040.753866577 2266.999364166 2072.014390740 2081.667714994 2040.445950009 2040.510922719 2088.259868686 2040.777212843 2119.133997750 2040.652422648 2099.630381389 2040.546540427 2104.525931740 2096.873252665 2207.962697612 2040.335988191 2149.627007734 2187.066099282 2040.102277998 2189.317418448 2191.195988136 2040.139116610 2040.091132763 2040.995857312 2041.087413077 2041.926081461 2040.738534977 2169.377717356 2040.408211261 2040.053430617 2039.495936982 2040.090567769 2039.864877228 2040.044218137 2040.560476044 2040.600791020 2040.625230614 2040.472523506 2040.533887750 2040.033331584 2040.015638667 2040.110199003 2040.143642482 2040.401606363 2040.502304991 2040.385691837 2040.120276523 2040.326357740 2040.371901227 2040.361495549 2040.321262700 2040.475928764 2040.269368507 2040.395098754 2040.316457326 2040.521960565 2040.574644751 2040.639476449 
    </DataArray>
    <DataArray Name="Velocity" type="Float32"  NumberOfComponents="3" Format="ascii">