<?xml version="1.0"?>
<VTKFile type="PolyData" version="0.1" byte_order="LittleEndian">
 <PolyData>
  <Piece Name ="SoilBlock" NumberOfPoints="250" NumberOfVerts="250">
   <Points>
    <DataArray Name="Position" type="Float32"  NumberOfComponents="3" Format="ascii">
    1.71126 0.511515 0 1.69008 0.509498 0 1.74945 0.508929 0 1.73143 0.510044 0 1.74742 0.535666 0 1.72524 0.529417 0 1.79508 0.508353 0 1.77377 0.507805 0 1.83644 0.509087 0 1.81613 0.508756 0 1.79057 0.553003 0 1.80063 0.528656 0 1.76192 0.526319 0 1.78261 0.53001 0 1.77051 0.54918 0 1.82112 0.529084 0 1.83045 0.550492 0 1.81078 0.548276 0 1.84056 0.530123 0 1.8566 0.508837 0 1.87698 0.50926 0 1.89693 0.509073 0 1.9365 0.509357 0 1.91678 0.509543 0 1.8934 0.549579 0 1.86028 0.528985 0 1.85222 0.549476 0 1.87184 0.549513 0 1.88027 0.529959 0 1.93319 0.549742 0 1.91255 0.54922 0 1.90026 0.529245 0 1.94131 0.529414 0 1.92098 0.529704 0 1.97595 0.509564 0 1.95635 0.509515 0 1.99558 0.509488 0 2.03401 0.509982 0 2.01512 0.509841 0 1.97343 0.549115 0 1.95202 0.549347 0 1.96184 0.529599 0 1.98238 0.529835 0 2.03184 0.551985 0 2.02419 0.530404 0 2.00272 0.529368 0 2.01357 0.548063 0 1.99255 0.550027 0 2.07088 0.512259 0 2.05365 0.509012 0 2.08978 0.507206 0 2.12676 0.50746 0 2.10901 0.512972 0 2.0685 0.531456 0 2.06984 0.554857 0 2.04462 0.528969 0 2.05282 0.545235 0 2.11192 0.532818 0 2.12766 0.546407 0 2.10923 0.554131 0 2.08765 0.544989 0 2.09129 0.528024 0 2.166 0.508639 0 2.14734 0.51117 0 2.20599 0.509169 0 2.18716 0.509986 0 2.13408 0.528082 0 2.15105 0.55349 0 2.16881 0.546707 0 2.15271 0.532558 0 2.19254 0.533124 0 2.17486 0.563882 0 2.17448 0.527145 0 2.21328 0.527116 0 2.21436 0.544822 0 2.19291 0.551887 0 2.26376 0.509881 0 2.24439 0.509165 0 2.22624 0.510304 0 2.30024 0.509923 0 2.28158 0.510354 0 2.23682 0.53097 0 2.25664 0.530147 0 2.23108 0.551566 0 2.25202 0.550755 0 2.27306 0.552289 0 2.27788 0.531139 0 2.30086 0.529838 0 2.29271 0.547296 0 2.32172 0.509104 0 2.34407 0.510121 0 2.39857 0.507222 0 2.3665 0.508144 0 2.33935 0.551001 0 2.31743 0.551915 0 2.32037 0.532775 0 2.35354 0.563848 0 2.35557 0.538066 0 2.34032 0.527982 0 2.37404 0.523826 0 2.38249 0.557838 0 2.3748 0.543529 0 2.39837 0.539903 0 2.39907 0.560805 0 2.39416 0.521785 0 2.42166 0.505791 0 2.43305 0.516763 0 2.45351 0.508401 0 2.48208 0.514039 0 2.43649 0.532916 0 2.41196 0.555298 0 2.43152 0.555839 0 2.41872 0.532344 0 2.48454 0.544641 0 2.46438 0.542289 0 2.46449 0.524223 0 2.45093 0.548749 0 2.52241 0.510059 0 2.50068 0.512474 0 2.56747 0.510743 0 2.54643 0.51114 0 2.50964 0.532468 0 2.5281 0.543796 0 2.53564 0.528657 0 2.50346 0.546919 0 2.54763 0.546961 0 2.56158 0.533314 0 2.57432 0.5412 0 2.58767 0.53047 0 2.61107 0.510201 0 2.63341 0.509978 0 2.58951 0.510597 0 2.65839 0.509812 0 2.61238 0.533606 0 2.62789 0.5325 0 2.5993 0.545131 0 2.6671 0.539466 0 2.65122 0.527693 0 2.64205 0.543332 0 2.72307 0.509996 0 2.70138 0.510027 0 2.68082 0.510262 0 2.74656 0.507435 0 2.69823 0.537931 0 2.71324 0.532913 0 2.68074 0.531741 0 2.74599 0.538608 0 2.7599 0.523495 0 2.73166 0.530471 0 1.80765 0.567965 0 1.84464 0.567788 0 1.85017 0.589048 0 1.82828 0.574443 0 1.88927 0.586687 0 1.87058 0.59433 0 1.88344 0.566853 0 1.86495 0.572396 0 1.88865 0.607701 0 1.90892 0.592365 0 1.90438 0.571832 0 1.92313 0.567811 0 1.93034 0.586009 0 1.92634 0.605624 0 1.90957 0.614603 0 1.92954 0.627272 0 1.94492 0.571441 0 1.98553 0.572112 0 1.9494 0.592749 0 1.96791 0.603672 0 1.96418 0.566811 0 1.9693 0.584785 0 2.02687 0.572314 0 2.00656 0.604243 0 2.02966 0.593942 0 1.99039 0.593046 0 2.01104 0.584059 0 2.00416 0.566604 0 1.94612 0.612884 0 1.95171 0.634831 0 1.97515 0.639765 0 1.96463 0.623791 0 1.98469 0.613364 0 2.00527 0.624634 0 2.02409 0.613462 0 1.99413 0.62922 0 2.02686 0.629289 0 2.05014 0.583041 0 2.07031 0.573685 0 2.06834 0.596185 0 2.04738 0.601809 0 2.04687 0.565477 0 2.09487 0.602795 0 2.0856 0.583651 0 2.09291 0.565164 0 2.12608 0.586061 0 2.11123 0.573406 0 2.1087 0.59362 0 2.07699 0.617536 0 2.0452 0.621705 0 2.06072 0.618841 0 2.08821 0.614873 0 2.12287 0.612605 0 2.13516 0.564339 0 2.1462 0.578603 0 2.14655 0.598734 0 2.16462 0.578829 0 2.16189 0.59728 0 2.18767 0.594896 0 2.20949 0.5921 0 2.17811 0.605665 0 2.18899 0.580662 0 2.20325 0.567368 0 2.13973 0.610187 0 2.22067 0.569141 0 2.23258 0.587194 0 2.26499 0.568006 0 2.24257 0.571345 0 2.25186 0.589447 0 2.22099 0.594476 0 2.2841 0.579414 0 2.29931 0.564713 0 2.26953 0.585093 0 2.29857 0.578295 0 2.322 0.575567 0 2.33453 0.567835 0 2.36721 0.56585 0 2.77717 0.510612 0 2.80137 0.509963 0 2.82639 0.510656 0 2.85074 0.510954 0 2.79494 0.532724 0 2.77782 0.537295 0 2.81413 0.531542 0 2.83437 0.534285 0 2.85712 0.532896 0 2.87576 0.510729 0 2.90133 0.50992 0 2.92886 0.508286 0 2.90693 0.530823 0 2.8816 0.532881 0 2.93137 0.53002 0 2.95243 0.522787 0 2.96343 0.506289 0 3 0.513247 0 3.02381 0.517429 0 3.04541 0.510341 0 2.98036 0.523926 0 3.08962 0.506714 0 3.06886 0.517718 0 3.11927 0.508394 0 
    </DataArray>
   </Points>
   <PointData  Vectors="vector">
    <DataArray Name="SortedParticle_ID" type="Int32" Format="ascii">
    0 1 2 3 4 5 6 7 8 9 10 11 12 13 14 15 16 17 18 19 20 21 22 23 24 25 26 27 28 29 30 31 32 33 34 35 36 37 38 39 40 41 42 43 44 45 46 47 48 49 50 51 52 53 54 55 56 57 58 59 60 61 62 63 64 65 66 67 68 69 70 71 72 73 74 75 76 77 78 79 80 81 82 83 84 85 86 87 88 89 90 91 92 93 94 95 96 97 98 99 100 101 102 103 104 105 106 107 108 109 110 111 112 113 114 115 116 117 118 119 120 121 122 123 124 125 126 127 128 129 130 131 132 133 134 135 136 137 138 139 140 141 142 143 144 145 146 147 148 149 150 151 152 153 154 155 156 157 158 159 160 161 162 163 164 165 166 167 168 169 170 171 172 173 174 175 176 177 178 179 180 181 182 183 184 185 186 187 188 189 190 191 192 193 194 195 196 197 198 199 200 201 202 203 204 205 206 207 208 209 210 211 212 213 214 215 216 217 218 219 220 221 222 223 224 225 226 227 228 229 230 231 232 233 234 235 236 237 238 239 240 241 242 243 244 245 246 247 248 249 
    </DataArray>
    <DataArray Name="OriginalID" type="Int32" Format="ascii">
    1 0 4 2 5 3 9 6 16 12 11 13 7 10 8 17 18 14 21 20 25 30 42 36 32 26 22 27 31 44 38 37 50 43 56 49 64 81 72 58 51 57 65 83 82 73 74 66 100 90 110 130 120 101 102 91 92 121 132 122 112 111 150 140 169 160 131 142 152 141 161 153 151 170 171 162 194 186 178 208 201 179 187 180 188 196 195 202 203 214 220 230 225 217 216 209 155 221 215 226 126 227 235 210 238 234 241 242 127 236 231 117 232 109 174 197 136 191 128 138 156 190 146 166 118 119 137 211 222 157 167 183 184 165 175 129 147 205 139 239 223 212 244 149 198 148 158 159 228 15 23 24 19 34 29 33 28 35 40 39 45 46 47 41 48 52 67 53 61 59 60 84 77 85 68 76 75 54 55 63 62 69 78 86 70 71 94 103 104 95 93 115 114 113 134 123 124 96 79 87 105 80 133 143 97 154 135 144 116 89 163 172 88 181 164 204 189 98 125 145 182 106 173 99 107 108 176 199 218 200 192 168 206 177 185 213 233 240 207 193 219 224 246 237 243 245 229 248 247 249 
    </DataArray>
    <DataArray Name="ErodedLabel" type="Int32" Format="ascii">
    0 1 1 0 0 0 0 0 0 0 0 0 0 0 0 0 0 0 0 0 0 0 0 0 0 0 0 0 0 0 0 0 0 0 0 0 0 0 0 0 0 0 0 0 0 0 0 0 0 0 0 0 0 0 0 0 0 0 0 0 0 0 0 0 0 0 0 0 0 0 0 0 0 0 0 0 0 0 0 0 0 0 0 0 0 1 0 0 1 0 0 0 0 1 1 0 1 1 0 0 1 1 1 1 0 0 0 1 1 1 1 1 1 1 1 1 1 1 1 1 1 1 1 1 1 1 0 1 1 1 1 1 1 1 1 1 1 1 1 1 1 1 1 1 1 1 1 1 1 0 0 0 0 0 0 0 0 0 0 0 0 0 0 0 0 0 0 0 0 0 0 0 1 0 0 0 0 0 1 1 0 1 1 1 0 1 0 0 1 1 0 1 1 0 1 0 1 1 1 1 1 1 0 1 1 1 1 1 1 1 1 1 1 1 1 1 1 1 1 1 1 1 1 1 1 1 1 1 1 1 1 1 0 1 1 0 1 1 1 1 0 1 0 1 0 1 1 1 1 1 
    </DataArray>
    <DataArray Name="Indicator" type="Int32" Format="ascii">
    1 1 0 1 1 1 0 0 0 0 1 0 1 1 1 0 0 1 0 0 0 0 0 0 0 0 0 0 0 0 0 0 0 0 0 0 0 0 0 0 0 0 0 0 0 0 0 0 0 0 0 0 0 0 0 0 0 0 0 0 0 0 0 0 0 0 0 0 0 0 0 0 0 0 0 0 0 0 0 0 0 0 0 0 0 0 0 0 0 0 0 0 0 1 0 0 1 0 0 0 1 0 1 1 0 0 0 0 0 1 1 1 0 1 1 1 1 0 0 0 0 1 1 1 1 1 1 1 1 0 0 0 0 1 1 1 1 1 1 1 0 1 1 1 1 1 1 1 1 1 1 1 1 1 1 0 1 1 1 0 0 0 1 1 1 0 0 0 0 0 0 0 1 0 0 0 0 1 1 1 1 1 1 1 1 1 0 0 0 1 0 1 0 0 0 0 0 1 1 1 1 1 0 0 1 0 1 1 1 1 1 0 1 0 1 1 1 1 1 1 1 1 1 1 1 1 1 0 0 1 1 1 1 1 1 1 1 1 1 1 1 1 1 1 1 1 1 1 1 1 
    </DataArray>
    <DataArray Name="VerticalStress" type="Float32" Format="ascii">
    -905.835177515 -438.239232016 -1039.963131540 -813.863927733 -208.790357778 -266.396331073 -1849.703479991 -1694.583820670 -1797.599409595 -1816.118943946 -265.561439272 -870.825557516 -646.440743730 -643.991542448 -199.069265345 -1270.499711758 -1073.386736079 -622.342174233 -1537.457997643 -2082.032620748 -2344.530686659 -2427.823069159 -2468.946191596 -2413.660684948 -1187.004382839 -1586.020073027 -1187.776179705 -994.845721450 -1613.828053819 -1908.593094331 -1689.447413614 -1943.385826710 -2336.750414730 -2275.821734068 -2584.620352690 -2554.015754632 -2611.891977962 -2712.211099290 -2671.183895884 -1943.542286249 -1925.110714988 -2245.196542596 -2240.531726787 -1677.727599376 -2150.819632729 -2269.419231386 -1895.860868504 -1964.858302145 -2348.858849328 -2608.327344568 -2451.356369303 -2311.767349175 -2328.083313166 -2087.452946357 -1657.793946580 -2199.543280224 -1725.997238497 -1740.324186373 -1615.745790943 -1435.443703415 -1672.384874366 -1976.222883345 -2418.340809865 -2350.527197644 -2245.753578616 -2395.068390617 -1903.479041489 -1302.352895013 -1544.523943879 -1988.545272954 -1673.409647309 -1155.500806731 -2035.152829063 -1486.143389043 -1269.952613767 -1296.068089440 -1997.484610845 -1995.736372032 -2088.565756259 -2068.004058833 -1946.015676488 -1624.887080754 -1677.229345104 -1134.296286330 -1286.282656677 -991.895680035 -1588.313045292 -1439.343564735 -1139.928847379 -1706.206670935 -1997.984264072 -1902.064393395 -1730.298997720 -632.902179205 -796.524891759 -1256.912461783 -209.597928354 -1006.760711380 -1550.018936292 -1055.797441636 -276.270279466 -429.840263226 -921.593478319 -52.241479803 -1268.688352577 -1368.899172919 -1052.401055063 -1519.857457267 -1419.136373797 -53.611201862 -135.002502583 -444.345997872 -883.629212471 -467.184807929 -167.829802750 -1093.494165716 -527.639747034 -1322.488160431 -1270.873591726 -1158.232891638 -1285.283497125 -690.934921414 -92.476363258 -639.339710618 -182.245281875 -199.274519457 -505.447307428 -105.285193092 -541.310728973 -1075.279049578 -1165.833770056 -1197.390872335 -1190.808984155 -445.457757132 -344.946013514 -165.963685943 -149.691602406 -552.441182365 -158.157324384 -1001.204793990 -941.234544395 -1013.062285168 -957.919937295 -285.921585898 -346.165871911 -421.201624391 -159.659694834 -746.417558804 -381.657445223 -374.083317842 -944.250034740 -575.513745036 -618.358203998 -903.677546077 -537.820435485 -828.120848165 -860.214546139 -608.600595293 -966.073923403 -1006.178875415 -1262.045953353 -868.398858204 -872.393014664 -625.860644950 -462.957643086 -1100.778145759 -1527.603655241 -721.074069901 -786.002690678 -1412.412365132 -1015.191164032 -1267.350743167 -904.644304417 -1025.911338646 -1129.747484333 -1258.769204418 -1660.524900185 -819.229178943 -275.552311882 -234.041204955 -537.126011572 -463.606153049 -138.750088081 -469.411790665 -191.968116633 -128.331479746 -1099.827460148 -1292.321536338 -664.070796340 -675.495281397 -1368.502064955 -696.156765369 -879.265581128 -1325.048466793 -585.878880069 -1052.176130344 -755.303106015 -280.891057610 -157.971398055 -270.576350370 -41.784732737 -153.646788970 -1468.839825003 -808.591467063 -397.786399719 -1029.805372318 -42.375258529 -7.691457556 -147.848214879 -282.269855518 -902.846876446 -933.933338054 -190.929998315 -817.002063601 -74.417679808 -341.394572901 -975.973623556 -102.520119257 -203.874255254 -259.194487775 -829.553950768 -261.944503465 116.240934638 -101.364693408 -194.734484307 -233.939498325 -1107.159558142 -982.765016209 -967.297184834 -922.887648587 -325.056518890 -171.675670353 -300.870624417 -324.710198601 -352.233981261 -899.823846856 -865.869495158 -828.121522056 -414.780365659 -375.196841959 -399.941581729 -474.494314187 -749.654767191 -831.583699258 -584.092653141 -604.825573897 -490.249130859 -427.287126806 -530.719314997 -391.252830325 
    </DataArray>
    <DataArray Name="FrictionAngle" type="Float32" Format="ascii">
    0.523598776 0.523598776 0.009705040 0.523598776 0.523598776 0.523598776 0.523598776 0.523598776 0.523598776 0.523598776 0.523598776 0.523598776 0.523598776 0.523598776 0.523598776 0.523598776 0.523598776 0.523598776 0.523598776 0.523598776 0.523598776 0.523598776 0.523598776 0.523598776 0.523598776 0.523598776 0.523598776 0.523598776 0.523598776 0.523598776 0.523598776 0.523598776 0.523598776 0.523598776 0.523598776 0.523598776 0.523598776 0.523598776 0.523598776 0.523598776 0.523598776 0.523598776 0.523598776 0.523598776 0.523598776 0.523598776 0.523598776 0.523598776 0.523598776 0.523598776 0.523598776 0.523598776 0.523598776 0.523598776 0.523598776 0.523598776 0.523598776 0.523598776 0.523598776 0.523598776 0.523598776 0.523598776 0.523598776 0.523598776 0.523598776 0.523598776 0.523598776 0.523598776 0.523598776 0.523598776 0.523598776 0.523598776 0.523598776 0.523598776 0.523598776 0.523598776 0.523598776 0.523598776 0.523598776 0.523598776 0.523598776 0.523598776 0.523598776 0.523598776 0.523598776 0.235033552 0.523598776 0.523598776 0.156624960 0.523598776 0.523598776 0.523598776 0.523598776 0.000007300 0.008112136 0.523598776 0.000907690 0.004865282 0.523598776 0.523598776 0.000858562 0.000039986 0.000824005 0.001587215 0.389579012 0.523598776 0.458307299 0.003784792 0.000865857 0.000015765 0.001138022 0.000998947 0.000670130 0.000896744 0.000594427 0.000701094 0.000928090 0.000379888 0.000933052 0.001040989 0.001108897 0.001025115 0.000815635 0.000718540 0.000391774 0.000769719 0.000686839 0.000073002 0.000781863 0.000647011 0.001237919 0.001165793 0.001408422 0.000989882 0.000887855 0.000815096 0.000948448 0.000883114 0.000877113 0.000718992 0.001648134 0.001705903 0.006186335 0.000861798 0.000412699 0.000970784 0.001217658 0.001017788 0.001017698 0.523598776 0.523598776 0.523598776 0.523598776 0.523598776 0.523598776 0.523598776 0.523598776 0.523598776 0.448469021 0.523598776 0.523598776 0.523598776 0.523598776 0.523598776 0.460117692 0.523598776 0.523598776 0.523598776 0.523598776 0.523598776 0.523598776 0.523598776 0.094446688 0.523598776 0.523598776 0.523598776 0.523598776 0.155356498 0.170200469 0.020905419 0.080999608 0.012698051 0.004862163 0.011288687 0.014314019 0.011921402 0.523598776 0.523598776 0.020569188 0.010029384 0.523598776 0.003877422 0.162636016 0.523598776 0.017156816 0.523598776 0.003888229 0.005123620 0.007725616 0.005321816 0.001835303 0.003464575 0.523598776 0.047951028 0.002172101 0.008006750 0.002249499 0.002434492 0.001244462 0.002416030 0.005851802 0.078657865 0.002416473 0.001808884 0.001426303 0.001071028 0.002873424 0.001410848 0.000755611 0.000523016 0.000765849 0.001383137 0.000608184 0.001048799 0.001088275 0.000912554 0.000197360 0.000190331 0.000119827 0.000590021 0.001143945 0.001077992 0.001346994 0.001326929 0.001325818 0.001414936 0.001619816 0.001760064 0.001476238 0.001502769 0.001529626 0.001726689 0.002226857 0.002608086 0.003080425 0.002139760 0.001781981 0.001589525 0.001374731 0.001145231 
    </DataArray>
    <DataArray Name="Cohesion" type="Float32" Format="ascii">
    400.000000000 400.000000000 6.724060009 400.000000000 400.000000000 400.000000000 400.000000000 400.000000000 400.000000000 400.000000000 400.000000000 400.000000000 400.000000000 400.000000000 400.000000000 400.000000000 400.000000000 400.000000000 400.000000000 400.000000000 400.000000000 400.000000000 400.000000000 400.000000000 400.000000000 400.000000000 400.000000000 400.000000000 400.000000000 400.000000000 400.000000000 400.000000000 400.000000000 400.000000000 400.000000000 400.000000000 400.000000000 400.000000000 400.000000000 400.000000000 400.000000000 400.000000000 400.000000000 400.000000000 400.000000000 400.000000000 400.000000000 400.000000000 400.000000000 400.000000000 400.000000000 400.000000000 400.000000000 400.000000000 400.000000000 400.000000000 400.000000000 400.000000000 400.000000000 400.000000000 400.000000000 400.000000000 400.000000000 400.000000000 400.000000000 400.000000000 400.000000000 400.000000000 400.000000000 400.000000000 400.000000000 400.000000000 400.000000000 400.000000000 400.000000000 400.000000000 400.000000000 400.000000000 400.000000000 400.000000000 400.000000000 400.000000000 400.000000000 400.000000000 400.000000000 165.902185653 400.000000000 400.000000000 109.409073435 400.000000000 400.000000000 400.000000000 400.000000000 0.005057358 5.620375833 400.000000000 0.628865943 3.370792960 400.000000000 400.000000000 0.594829489 0.027702926 0.570887553 1.099655888 284.446307020 400.000000000 341.797589941 2.622193201 0.599883729 0.010922217 0.788445261 0.692091196 0.464279686 0.621282744 0.411830813 0.485732158 0.643000033 0.263194176 0.646437782 0.721218476 0.768266717 0.710220461 0.565088560 0.497819404 0.271429341 0.533277330 0.475855880 0.050577112 0.541690430 0.448262546 0.857655976 0.807685770 0.975784139 0.685810393 0.615124082 0.564715056 0.657104110 0.611839285 0.607681893 0.498132516 1.141861701 1.181885609 4.286073161 0.597071566 0.285926512 0.672579177 0.843618945 0.705144711 0.705081940 400.000000000 400.000000000 400.000000000 400.000000000 400.000000000 400.000000000 400.000000000 400.000000000 400.000000000 333.363134074 400.000000000 400.000000000 400.000000000 400.000000000 400.000000000 343.358536607 400.000000000 400.000000000 400.000000000 400.000000000 400.000000000 400.000000000 400.000000000 65.629844544 400.000000000 400.000000000 400.000000000 400.000000000 108.508521407 119.070321667 14.485809152 56.241226648 8.797940856 3.368631918 7.821364054 9.917720758 8.259780547 400.000000000 400.000000000 14.252761677 6.948794394 400.000000000 2.686370223 113.681619867 400.000000000 11.887756922 400.000000000 2.693857824 3.549779063 5.352570218 3.687096988 1.271536879 2.400337909 400.000000000 33.246932129 1.504877830 5.547357678 1.558501106 1.686669201 0.862189253 1.673878185 4.054293424 54.608435484 1.674185059 1.253232756 0.988172156 0.742030552 1.990771744 0.977465155 0.523502554 0.362356195 0.530595778 0.958266336 0.421361953 0.726629757 0.753979282 0.632236089 0.136735124 0.131865476 0.083018908 0.408778360 0.792548381 0.746855247 0.933225212 0.919324083 0.918554160 0.980296769 1.122242529 1.219409112 1.022768309 1.041149638 1.059756821 1.196286560 1.542814195 1.806938800 2.134187793 1.482471369 1.234593784 1.101256353 0.952442488 0.793439391 
    </DataArray>
    <DataArray Name="Pressure" type="Float32" Format="ascii">
    821.064108049 1130.440514737 946.994474119 806.441473704 590.334387426 681.539964750 1047.645564297 925.009854009 1398.811569202 1260.394545340 742.811679980 1127.977777855 815.065353742 1009.716443021 607.618510943 1017.933109598 572.938278805 855.654010040 946.236129324 1483.334233796 1518.968333359 1622.333424620 1838.173989328 1739.971650406 1334.276718599 1250.527791462 779.144162517 1256.358615292 1499.179311018 1070.567532122 1066.334580388 1410.812495625 1385.356256534 1270.891843321 1915.195387726 1894.448663128 1913.605179000 1857.594940950 1872.416078989 1297.497276369 1306.445440508 1565.894672592 1578.244059848 1519.298680461 1618.279290708 1553.852292717 1294.875700537 1144.242330637 1728.871895975 1844.314558275 1817.586335145 1760.055021426 1787.409181111 1446.257299389 1112.180961089 1709.284426278 1411.099532712 1573.446711292 1475.658311426 1298.527267273 1137.139253836 1532.338686016 1906.311678030 1843.046341773 1751.269735446 1844.990611087 1589.948371453 862.557013186 1134.909095893 1366.349387247 1448.451297620 923.889129618 1410.139954263 1416.118644254 1260.904409463 1207.929399436 1555.734059711 1586.363159390 1624.710684256 1462.325426369 1434.319808545 1143.870901740 1123.212043050 849.001871557 941.459361831 787.961041258 1444.904315885 1211.891770242 1088.958618814 1301.029817075 1394.319789944 1281.231403602 1271.730363282 541.556990367 767.033185837 1031.021044741 205.517444304 985.830266001 973.354163601 1058.685536187 281.755861477 516.614103170 1010.621921240 51.402216748 1041.565942481 1052.100687168 847.928029778 1509.492947738 1424.308674217 45.415542799 142.077185193 436.984882805 921.687918241 470.875904109 164.711264178 1090.765227186 513.584825591 1322.162222358 1270.762146407 1159.365045013 1284.737814377 689.750865223 93.075494266 639.284738810 182.146137895 200.127606385 504.765747874 104.919028339 540.841922799 1075.086398864 1165.690612351 1195.980282909 1190.913382597 444.567280966 345.056190510 165.804339252 150.106419996 552.790974723 158.418399921 1002.766136489 941.805141562 1013.477687351 957.377153833 285.691035566 346.082069233 421.535746322 160.527310949 746.008779830 381.309035188 524.080773995 384.695694550 280.609432059 297.738647258 485.318196685 337.772650533 1030.594665403 607.627176731 243.457390675 385.627716143 878.362298471 944.480301560 861.470052472 362.810756190 138.347052578 111.248352086 1223.833862883 836.132599425 1000.167049132 783.801365574 1249.550981063 1079.671947287 1156.047918035 759.785543254 905.943635568 716.115246884 764.392711048 879.730656235 506.214832980 79.352744148 200.324387999 381.458966459 445.275104811 150.173623710 505.944880848 193.987615341 164.185039119 948.988431210 960.424044100 609.109128206 690.552028384 1305.968953502 722.686858814 626.046639491 883.642527159 609.107005915 964.123667938 779.682323905 282.064274882 153.056611735 249.124995053 52.146699317 167.338395980 1317.370020201 804.307796338 412.264175265 1001.824493472 57.418193050 -4.138009883 121.330554629 276.216205473 888.999256777 888.876781053 195.938860503 797.357371993 52.627737113 347.389209682 941.066079115 105.060825875 180.262759473 279.793701004 872.557503845 269.564783758 -99.904903695 112.688645045 189.280812953 228.258224908 1106.887089892 982.404720237 967.448376927 923.119438768 325.927540695 172.703330677 301.035245872 326.144601488 353.513189287 899.545209282 865.684834882 827.664585468 415.340179326 377.361586329 399.819529031 474.117202163 748.471238659 837.719235685 584.581982094 604.619187782 488.618430026 430.899798517 530.603881328 392.260109050 
    </DataArray>
    <DataArray Name="Density" type="Float32" Format="ascii">
    2040.351291050 2040.516774094 2040.146306347 2040.386498591 2040.473718078 2040.366455936 2040.175426517 2040.188154261 2047.875312171 2043.910947029 2040.335432450 2040.092579971 2040.129109471 2040.048647556 2040.369064400 2040.023649224 2040.053810690 2040.097626445 2040.032956553 2054.380754623 2047.990644963 2064.242098900 2066.514865094 2061.739189141 2040.013891945 2040.035335917 2040.030332207 2040.017446940 2039.981316353 2039.978736250 2039.985141316 2040.019531233 2040.039406035 2040.011757542 2065.910290715 2066.047829115 2071.870182736 2085.246292603 2071.234664413 2039.962107847 2039.941345677 2040.056346231 2040.030243410 2039.856696978 2040.099807060 2039.980901218 2049.126588185 2047.602691630 2072.628654670 2098.467075955 2099.294942852 2074.324827389 2040.061915597 2039.978204805 2039.906023314 2039.851591344 2050.269415395 2040.149157945 2039.797584468 2039.972653854 2040.242495509 2039.946378945 2061.351958559 2040.664451209 2088.389338212 2051.781890708 2040.063432592 2040.952337140 2051.465897587 2039.918644108 2040.128829035 2040.167181729 2040.199275549 2047.566107630 2062.955588623 2039.926043716 2088.348744253 2088.241671540 2080.000631976 2040.123328103 2078.581067252 2040.179262975 2040.137705329 2040.527469255 2039.569479653 2040.258518566 2039.310452787 2040.181580038 2039.653343033 2040.451938756 2040.039834448 2039.896050895 2040.132472587 2140.227187716 2039.670424553 2039.735474682 2040.673179950 2039.078630918 2040.008899602 2040.126780302 2117.568223711 2128.378451657 2094.274882859 2041.034229949 2040.349603926 2133.722091118 2104.440176122 2039.422227834 2039.676489391 2042.357146426 2041.003530030 2039.848192306 2039.008008684 2040.135269057 2041.313147669 2039.341714056 2039.690421070 2039.759799971 2040.077034839 2039.873474803 2039.659570790 2039.859248545 2041.050241751 2040.092850191 2040.706013817 2040.456920738 2040.139223383 2041.009246058 2040.071727504 2039.962283140 2039.618453854 2039.684121298 2039.600835336 2040.248438919 2040.645393624 2040.608593253 2040.832265665 2040.085910557 2040.627992318 2039.784175452 2040.024159104 2039.937927810 2040.155128882 2040.469082840 2040.493040619 2040.312280077 2040.752210528 2039.707068889 2040.453598299 2040.321723910 2040.094823726 2040.289466105 2040.360786987 2040.055152070 2040.364140929 2040.017237141 2040.080259304 2040.246293978 2040.119240342 2040.017344256 2044.856550501 2046.384179539 2039.977085527 2040.323667849 2040.381359427 2040.028342444 2040.162968269 2040.103537548 2078.413499408 2067.034337632 2077.027937716 2040.054819357 2123.652916102 2042.458273714 2039.863391567 2055.460352509 2057.830643797 2039.776375444 2040.503632853 2040.278380600 2086.040128615 2134.156275732 2117.690641437 2166.961659138 2040.443816571 2040.488812645 2052.945170579 2039.591905663 2039.912043062 2124.155737955 2049.436507607 2142.055755759 2040.471010514 2050.831951983 2040.482227253 2041.982208941 2039.463673983 2090.682837403 2040.747297835 2040.380667245 2058.516329501 2040.674350539 2038.990902720 2145.490735666 2246.144198542 2119.203529172 2162.812025133 2103.853136636 2064.870934123 2040.051334778 2162.049517107 2060.929498430 2040.378969637 2126.942752995 2177.336454721 2148.133502571 2094.451615848 2040.804086417 2040.375345449 2103.491049080 2159.835793244 2040.178542631 2041.590850638 2040.704088178 2040.654485431 2040.353483686 2039.681436678 2039.923517005 2039.889605487 2040.035825231 2040.458977064 2040.788182136 2040.616215157 2040.452809244 2040.459844531 2040.072273496 2040.136910526 2040.141567286 2040.348036370 2040.407468077 2040.345195866 2040.401201256 2040.303717928 2040.146120845 2040.444114645 2040.474220326 2040.420077283 2040.625434991 2040.311010819 2040.582037214 
    </DataArray>
    <DataArray Name="Velocity" type="Float32"  NumberOfComponents="3" Format="ascii">