<?xml version="1.0"?>
<VTKFile type="PolyData" version="0.1" byte_order="LittleEndian">
 <PolyData>
  <Piece Name ="SoilBlock" NumberOfPoints="250" NumberOfVerts="250">
   <Points>
    <DataArray Name="Position" type="Float32"  NumberOfComponents="3" Format="ascii">
    1.68993 0.509961 0 1.71011 0.510126 0 1.7298 0.509793 0 1.74975 0.509538 0 1.72997 0.529919 0 1.75036 0.53065 0 1.76976 0.509469 0 1.79 0.509479 0 1.84991 0.509622 0 1.8299 0.5095 0 1.80981 0.50962 0 1.78975 0.530703 0 1.76964 0.549584 0 1.79027 0.550661 0 1.77002 0.529865 0 1.82975 0.550428 0 1.80989 0.549399 0 1.84986 0.529766 0 1.85005 0.54933 0 1.80998 0.529745 0 1.82992 0.530701 0 1.86996 0.509621 0 1.88996 0.509672 0 1.91006 0.509628 0 1.93008 0.509711 0 1.86977 0.530555 0 1.86992 0.550523 0 1.88979 0.529642 0 1.89016 0.549365 0 1.92971 0.529563 0 1.93013 0.549236 0 1.90987 0.550666 0 1.90966 0.53057 0 1.97018 0.509728 0 1.95015 0.509685 0 1.99019 0.50974 0 2.03023 0.509775 0 2.0102 0.509762 0 1.97018 0.549104 0 1.95007 0.550723 0 1.96962 0.529454 0 1.98954 0.530672 0 1.94953 0.530605 0 1.99004 0.550882 0 2.01019 0.548911 0 2.03009 0.551042 0 2.02955 0.530758 0 2.00964 0.529355 0 2.0502 0.509789 0 2.07016 0.509824 0 2.09007 0.509812 0 2.10999 0.509836 0 2.04966 0.529296 0 2.05022 0.548789 0 2.06972 0.530796 0 2.07002 0.551178 0 2.11 0.530814 0 2.11 0.551232 0 2.09006 0.548705 0 2.08989 0.529305 0 2.16977 0.509786 0 2.12991 0.509811 0 2.14983 0.509822 0 2.18976 0.509772 0 2.20978 0.50976 0 2.17037 0.529299 0 2.16975 0.548791 0 2.15028 0.53079 0 2.13014 0.529306 0 2.14997 0.551177 0 2.12992 0.548707 0 2.21039 0.529355 0 2.20979 0.54891 0 2.1899 0.55103 0 2.19043 0.530755 0 2.2298 0.509741 0 2.2498 0.509728 0 2.30993 0.509625 0 2.28991 0.509719 0 2.26985 0.509682 0 2.2504 0.529448 0 2.22996 0.550889 0 2.2498 0.549094 0 2.23045 0.530671 0 2.28985 0.54922 0 2.26992 0.550733 0 2.31032 0.530603 0 2.31012 0.550689 0 2.27045 0.530626 0 2.29031 0.529541 0 2.33002 0.509679 0 2.35002 0.509613 0 2.37007 0.509628 0 2.39008 0.509502 0 2.33024 0.529617 0 2.32984 0.54934 0 2.35024 0.530601 0 2.35006 0.550547 0 2.39009 0.530724 0 2.39024 0.550458 0 2.36998 0.549302 0 2.37017 0.529739 0 2.41017 0.50963 0 2.42998 0.509475 0 2.49019 0.509789 0 2.47025 0.509537 0 2.45022 0.509471 0 2.43027 0.530732 0 2.41013 0.549366 0 2.4297 0.550683 0 2.41005 0.529709 0 2.45038 0.549574 0 2.49004 0.529906 0 2.45001 0.529842 0 2.46962 0.530668 0 2.50987 0.510137 0 2.53005 0.509958 0 1.80985 0.569777 0 1.84991 0.569462 0 1.84978 0.589666 0 1.83022 0.570681 0 1.86972 0.570731 0 1.88983 0.60967 0 1.88988 0.589331 0 1.87023 0.590722 0 1.88981 0.569187 0 1.93 0.589058 0 1.92982 0.609211 0 1.90993 0.590813 0 1.9098 0.570796 0 1.92968 0.569058 0 1.91017 0.610726 0 1.92989 0.629661 0 1.96948 0.568766 0 1.97027 0.588877 0 1.9497 0.570989 0 1.95 0.590937 0 1.96972 0.608863 0 1.98971 0.591175 0 1.98977 0.571061 0 2.02961 0.571272 0 2.02999 0.5912 0 2.00966 0.608585 0 2.00958 0.568644 0 2.01 0.588607 0 1.96987 0.629118 0 1.94973 0.610885 0 1.9898 0.611035 0 1.95015 0.630805 0 1.96987 0.649578 0 1.98999 0.630957 0 2.00983 0.649134 0 2.02984 0.650535 0 2.0298 0.611125 0 2.0299 0.630856 0 1.99011 0.650663 0 2.00984 0.628751 0 2.01012 0.669591 0 2.03019 0.670469 0 2.04952 0.608358 0 2.04961 0.568483 0 2.05011 0.588348 0 2.06973 0.571351 0 2.06999 0.591395 0 2.08984 0.568356 0 2.11 0.571372 0 2.11001 0.591388 0 2.0899 0.608154 0 2.09001 0.588128 0 2.04977 0.648545 0 2.07011 0.630838 0 2.06985 0.650488 0 2.0501 0.628572 0 2.06985 0.611164 0 2.11 0.61114 0 2.11002 0.630868 0 2.09004 0.628327 0 2.11001 0.650571 0 2.08992 0.648602 0 2.17041 0.568479 0 2.16987 0.588339 0 2.1301 0.608155 0 2.12997 0.588125 0 2.17049 0.608352 0 2.13018 0.568354 0 2.15026 0.571358 0 2.15002 0.591399 0 2.21032 0.60859 0 2.18999 0.591212 0 2.1904 0.571277 0 2.21041 0.568638 0 2.20998 0.588598 0 2.13007 0.648615 0 2.14992 0.630845 0 2.15015 0.650467 0 2.17025 0.64858 0 2.15015 0.611163 0 2.12995 0.628319 0 2.16988 0.628555 0 2.21017 0.649147 0 2.19014 0.650525 0 2.19023 0.611135 0 2.21016 0.628771 0 2.19007 0.630864 0 2.05023 0.68931 0 2.04992 0.66892 0 2.07024 0.670011 0 2.06995 0.689629 0 2.11 0.689803 0 2.09012 0.668865 0 2.08993 0.689397 0 2.10999 0.67028 0 2.14975 0.670019 0 2.16977 0.689327 0 2.17006 0.668943 0 2.13007 0.6894 0 2.12993 0.668868 0 2.15005 0.689643 0 2.18982 0.670471 0 2.20987 0.669595 0 2.25051 0.568766 0 2.25031 0.608863 0 2.2497 0.588859 0 2.23023 0.571061 0 2.23028 0.591194 0 2.27 0.59094 0 2.2903 0.569057 0 2.29 0.58906 0 2.29021 0.609182 0 2.31007 0.59079 0 2.31021 0.570786 0 2.27031 0.570991 0 2.25012 0.649583 0 2.23 0.630929 0 2.23021 0.611034 0 2.2299 0.650647 0 2.25013 0.629144 0 2.27023 0.610877 0 2.30984 0.610715 0 2.29012 0.629638 0 2.26987 0.630789 0 2.3302 0.56917 0 2.33014 0.589318 0 2.33018 0.609653 0 2.34979 0.590705 0 2.35029 0.570729 0 2.37024 0.589657 0 2.37013 0.569438 0 2.38977 0.570701 0 2.41019 0.569755 0 
    </DataArray>
   </Points>
   <PointData  Vectors="vector">
    <DataArray Name="SortedParticle_ID" type="Int32" Format="ascii">
    0 1 2 3 4 5 6 7 8 9 10 11 12 13 14 15 16 17 18 19 20 21 22 23 24 25 26 27 28 29 30 31 32 33 34 35 36 37 38 39 40 41 42 43 44 45 46 47 48 49 50 51 52 53 54 55 56 57 58 59 60 61 62 63 64 65 66 67 68 69 70 71 72 73 74 75 76 77 78 79 80 81 82 83 84 85 86 87 88 89 90 91 92 93 94 95 96 97 98 99 100 101 102 103 104 105 106 107 108 109 110 111 112 113 114 115 116 117 118 119 120 121 122 123 124 125 126 127 128 129 130 131 132 133 134 135 136 137 138 139 140 141 142 143 144 145 146 147 148 149 150 151 152 153 154 155 156 157 158 159 160 161 162 163 164 165 166 167 168 169 170 171 172 173 174 175 176 177 178 179 180 181 182 183 184 185 186 187 188 189 190 191 192 193 194 195 196 197 198 199 200 201 202 203 204 205 206 207 208 209 210 211 212 213 214 215 216 217 218 219 220 221 222 223 224 225 226 227 228 229 230 231 232 233 234 235 236 237 238 239 240 241 242 243 244 245 246 247 248 249 
    </DataArray>
    <DataArray Name="OriginalID" type="Int32" Format="ascii">
    0 1 2 4 3 5 6 9 20 16 12 10 8 11 7 18 14 21 22 13 17 25 30 36 42 26 27 31 32 43 44 38 37 56 49 64 81 72 58 51 57 65 50 66 74 83 82 73 90 100 110 120 91 92 101 102 121 122 112 111 150 130 140 160 169 151 152 141 131 142 132 170 171 162 161 178 186 208 201 194 187 180 188 179 203 196 209 210 195 202 214 220 225 230 215 216 221 222 231 232 227 226 234 238 246 244 241 239 236 240 235 243 247 242 245 248 249 15 23 24 19 28 35 34 29 33 46 47 40 39 45 41 48 59 60 52 53 61 68 67 84 85 77 75 76 62 54 69 55 63 70 79 88 86 87 71 78 80 89 95 93 94 103 104 113 123 124 115 114 97 106 107 96 105 125 126 116 127 117 153 154 135 134 155 133 143 144 174 164 163 172 173 137 146 147 157 145 136 156 176 167 165 175 166 99 98 108 109 129 118 119 128 148 159 158 139 138 149 168 177 189 191 190 181 182 198 204 205 206 212 211 197 193 184 183 185 192 199 213 207 200 217 218 219 224 223 229 228 233 237 
    </DataArray>
    <DataArray Name="ErodedLabel" type="Int32" Format="ascii">
    0 0 0 0 0 0 0 0 0 0 0 0 1 1 0 0 0 0 0 0 0 0 0 0 0 0 0 0 0 0 0 0 0 0 0 0 0 0 0 0 0 0 0 0 0 0 0 0 0 0 0 0 0 0 1 0 0 0 1 0 0 0 0 0 0 0 0 0 0 0 0 0 0 0 0 0 0 0 0 0 0 0 0 0 0 0 0 0 0 0 0 0 0 0 0 0 0 0 0 0 0 0 0 0 0 0 0 0 0 0 0 0 0 0 0 0 0 0 1 1 0 1 1 0 1 0 1 0 0 0 0 1 1 0 0 0 0 0 0 0 1 1 0 0 0 0 0 0 0 1 0 0 0 0 0 1 1 1 0 0 1 1 0 1 1 1 0 1 0 1 1 1 0 1 1 1 0 0 0 0 0 1 1 0 1 1 1 0 1 1 0 0 0 0 0 0 0 0 0 0 0 0 1 0 0 0 1 1 0 0 0 0 0 0 0 1 0 1 0 1 0 0 0 0 0 0 0 0 0 0 0 0 1 0 0 1 0 0 0 1 0 0 0 0 0 0 0 0 0 0 
    </DataArray>
    <DataArray Name="Indicator" type="Int32" Format="ascii">
    1 1 1 1 1 1 0 0 0 0 0 1 1 1 1 1 1 0 0 0 0 0 0 0 0 0 0 0 0 0 0 0 0 0 0 0 0 0 0 0 0 0 0 0 0 0 0 0 0 0 0 0 0 0 0 0 0 0 0 0 0 0 0 0 0 0 0 0 0 0 0 0 0 0 0 0 0 0 0 0 0 0 0 0 0 0 0 0 0 0 0 0 0 0 0 0 0 0 0 1 0 0 0 0 1 1 0 1 1 1 0 1 1 1 1 1 1 1 1 1 1 1 1 1 1 0 0 1 1 0 0 1 1 0 0 0 0 0 0 0 0 0 0 0 0 1 1 0 1 1 1 1 1 0 0 1 0 1 1 0 0 0 0 0 0 0 0 0 0 0 0 0 0 0 0 0 0 0 0 0 0 0 0 0 0 0 0 0 0 0 0 0 0 0 0 0 0 0 0 1 1 0 0 0 1 1 1 1 1 1 1 1 1 1 1 1 1 1 1 1 0 0 0 0 0 0 0 0 1 1 0 0 1 1 0 1 1 1 1 1 1 0 1 1 1 1 1 1 1 1 
    </DataArray>
    <DataArray Name="VerticalStress" type="Float32" Format="ascii">
    -80.621961829 -115.350734169 -588.343558721 -1016.315932996 -245.319313723 -119.487595378 -1471.413252366 -1506.996718996 -1980.720754253 -1538.455487406 -1481.359616102 -235.428001012 -2.584466768 22.122614490 -97.326727514 -1188.787029174 -876.431937137 -1354.496909488 -906.105653666 -1049.299373442 -1331.628576331 -2198.860966468 -2397.338806181 -2398.494764905 -2826.744057766 -1356.469667417 -954.196311286 -1897.780944090 -1764.782474715 -2271.951794996 -2057.865233316 -2338.025142371 -1970.556557433 -3473.515089639 -3034.085868710 -3400.979346676 -3530.327291381 -3772.423656780 -2109.664767647 -1801.894177218 -2816.019781979 -2803.426212589 -2276.914300752 -2181.709016396 -2712.073249722 -2773.553281638 -3056.346672293 -3259.076878377 -3961.179501980 -3677.049770572 -4003.277515400 -3641.880859002 -3405.577026201 -3178.260427756 -3047.438026547 -3004.136575438 -3196.607616008 -2970.235413581 -3226.304690121 -3518.884687014 -3946.216074260 -4045.912410201 -3691.936962887 -3514.866062185 -3743.658798243 -3402.016983492 -3173.132476372 -3081.324418910 -3511.395101339 -2968.332676556 -3202.979494655 -3266.736708863 -2701.248733352 -2773.291159391 -3055.360940681 -3382.261127269 -3478.368845543 -2375.291805521 -2842.818630781 -3048.508842569 -2814.621981693 -2193.235773053 -2083.498313678 -2786.962457731 -1942.452240911 -1714.074657230 -2009.013792060 -2000.490157084 -2259.536331742 -2274.671641705 -2322.603029369 -2135.114694688 -1955.900389906 -1536.439927177 -1911.828442814 -1776.303538094 -1363.916730733 -978.830718499 -1346.594895931 -1008.100850401 -875.015023503 -1368.240776301 -1500.487692373 -1539.184673867 -660.028751544 -1040.342396218 -1492.931677108 -263.988731885 -869.664501400 -28.925618291 -1081.898368443 -30.840732126 -291.950006587 -173.886457701 -146.453368995 -206.003245462 -113.280871324 -488.929546021 -312.453257631 17.522687496 -381.671238407 -396.428227978 -64.356049829 -309.117214118 -19.622203420 -1176.959076643 -772.990908024 -224.178882128 -336.088029471 -1439.011226594 -1611.200819414 117.644496350 -71.045679655 -1713.060180188 -1798.008616542 -1507.409711452 -1272.585925008 -1296.740438086 -2068.857817623 -1890.454250473 -2336.866954282 -1812.001302785 -1629.174416981 -2250.849486281 -2004.227745576 -276.505337263 -696.666863083 -1590.850183539 -58.785518340 154.613148118 -317.062637274 -234.592534515 -785.077683139 -1584.260501693 -1410.343585962 200.278948903 -761.400760818 -129.246954867 -132.078901680 -1529.361150080 -2735.737159122 -1890.620302785 -2689.203597968 -1854.392804411 -2989.915596476 -2800.394806168 -2129.716013112 -1612.073205724 -2180.058163021 -1458.700470775 -2082.692407421 -1708.640623156 -1695.663234351 -1628.681042911 -1656.502071209 -1852.748022576 -1758.736156734 -1490.794853382 -1484.138171983 -2783.693961852 -1915.820910046 -1596.397351104 -2196.487311512 -1509.997187718 -2930.615301496 -2684.192757046 -1896.301514015 -1582.213742557 -1715.932930989 -2323.733508236 -2240.861439815 -1942.814132446 -1467.652447336 -2016.928262288 -1610.197221216 -1344.601656791 -1635.334589595 -1748.334794342 -1751.150403829 -233.107792958 -842.954233786 -1555.439300839 -730.089245136 -1440.251454662 67.335028317 -275.770185665 -303.885933845 170.517317330 117.394225432 -243.143172386 135.322094967 -373.850802104 -284.071257681 84.194382014 -269.089364425 127.285067077 -211.653606056 158.324005233 -122.987523974 -97.639352025 -1725.768664266 -1377.018262087 -1883.492216668 -1901.364653280 -2053.453529773 -1303.545679206 -1525.392484970 -757.205369039 -216.435768580 -427.679507089 -1515.754035936 -1446.983511638 58.789375103 -380.017706493 -1605.144816209 227.638459080 -336.151059015 -715.300238830 98.720738540 -12.012150074 -51.190606505 -1231.808757317 -398.370987621 -48.163141324 27.680814232 -433.241398463 8.924057404 -314.368427927 -372.687864356 -517.609314630 
    </DataArray>
    <DataArray Name="FrictionAngle" type="Float32" Format="ascii">
    0.523598776 0.523598776 0.523598776 0.523598776 0.523598776 0.523598776 0.523598776 0.523598776 0.523598776 0.523598776 0.523598776 0.523598776 0.523598776 0.523598776 0.523598776 0.523598776 0.523598776 0.523598776 0.523598776 0.523598776 0.523598776 0.523598776 0.523598776 0.523598776 0.523598776 0.523598776 0.523598776 0.523598776 0.523598776 0.523598776 0.523598776 0.523598776 0.523598776 0.523598776 0.523598776 0.523598776 0.523598776 0.523598776 0.523598776 0.523598776 0.523598776 0.523598776 0.523598776 0.523598776 0.523598776 0.523598776 0.523598776 0.523598776 0.523598776 0.523598776 0.523598776 0.523598776 0.523598776 0.523598776 0.523598776 0.523598776 0.523598776 0.523598776 0.523598776 0.523598776 0.523598776 0.523598776 0.523598776 0.523598776 0.523598776 0.523598776 0.523598776 0.523598776 0.523598776 0.523598776 0.523598776 0.523598776 0.523598776 0.523598776 0.523598776 0.523598776 0.523598776 0.523598776 0.523598776 0.523598776 0.523598776 0.523598776 0.523598776 0.523598776 0.523598776 0.523598776 0.523598776 0.523598776 0.523598776 0.523598776 0.523598776 0.523598776 0.523598776 0.523598776 0.523598776 0.523598776 0.523598776 0.523598776 0.523598776 0.523598776 0.523598776 0.523598776 0.523598776 0.523598776 0.523598776 0.523598776 0.523598776 0.523598776 0.523598776 0.523598776 0.523598776 0.523598776 0.523598776 0.523598776 0.523598776 0.523598776 0.523598776 0.523598776 0.523598776 0.523598776 0.523598776 0.523598776 0.523598776 0.523598776 0.523598776 0.523598776 0.523598776 0.523598776 0.523598776 0.523598776 0.523598776 0.523598776 0.523598776 0.523598776 0.523598776 0.523598776 0.523598776 0.523598776 0.523598776 0.523598776 0.523598776 0.523598776 0.523598776 0.523598776 0.523598776 0.523598776 0.523598776 0.523598776 0.523598776 0.523598776 0.523598776 0.523598776 0.523598776 0.523598776 0.523598776 0.523598776 0.523598776 0.523598776 0.523598776 0.523598776 0.523598776 0.523598776 0.523598776 0.523598776 0.523598776 0.523598776 0.523598776 0.523598776 0.523598776 0.523598776 0.523598776 0.523598776 0.523598776 0.523598776 0.523598776 0.523598776 0.523598776 0.523598776 0.523598776 0.523598776 0.523598776 0.523598776 0.523598776 0.523598776 0.523598776 0.523598776 0.523598776 0.523598776 0.523598776 0.523598776 0.523598776 0.523598776 0.523598776 0.523598776 0.523598776 0.523598776 0.523598776 0.523598776 0.523598776 0.523598776 0.523598776 0.523598776 0.523598776 0.523598776 0.523598776 0.523598776 0.409529773 0.523598776 0.523598776 0.455496583 0.523598776 0.523598776 0.523598776 0.523598776 0.523598776 0.523598776 0.523598776 0.523598776 0.523598776 0.523598776 0.523598776 0.523598776 0.523598776 0.523598776 0.523598776 0.523598776 0.523598776 0.523598776 0.523598776 0.523598776 0.523598776 0.523598776 0.523598776 0.523598776 0.523598776 0.523598776 0.523598776 0.523598776 0.523598776 0.523598776 0.523598776 0.523598776 0.523598776 0.523598776 0.523598776 0.523598776 0.523598776 0.523598776 0.523598776 0.523598776 
    </DataArray>
    <DataArray Name="Cohesion" type="Float32" Format="ascii">
    400.000000000 400.000000000 400.000000000 400.000000000 400.000000000 400.000000000 400.000000000 400.000000000 400.000000000 400.000000000 400.000000000 400.000000000 400.000000000 400.000000000 400.000000000 400.000000000 400.000000000 400.000000000 400.000000000 400.000000000 400.000000000 400.000000000 400.000000000 400.000000000 400.000000000 400.000000000 400.000000000 400.000000000 400.000000000 400.000000000 400.000000000 400.000000000 400.000000000 400.000000000 400.000000000 400.000000000 400.000000000 400.000000000 400.000000000 400.000000000 400.000000000 400.000000000 400.000000000 400.000000000 400.000000000 400.000000000 400.000000000 400.000000000 400.000000000 400.000000000 400.000000000 400.000000000 400.000000000 400.000000000 400.000000000 400.000000000 400.000000000 400.000000000 400.000000000 400.000000000 400.000000000 400.000000000 400.000000000 400.000000000 400.000000000 400.000000000 400.000000000 400.000000000 400.000000000 400.000000000 400.000000000 400.000000000 400.000000000 400.000000000 400.000000000 400.000000000 400.000000000 400.000000000 400.000000000 400.000000000 400.000000000 400.000000000 400.000000000 400.000000000 400.000000000 400.000000000 400.000000000 400.000000000 400.000000000 400.000000000 400.000000000 400.000000000 400.000000000 400.000000000 400.000000000 400.000000000 400.000000000 400.000000000 400.000000000 400.000000000 400.000000000 400.000000000 400.000000000 400.000000000 400.000000000 400.000000000 400.000000000 400.000000000 400.000000000 400.000000000 400.000000000 400.000000000 400.000000000 400.000000000 400.000000000 400.000000000 400.000000000 400.000000000 400.000000000 400.000000000 400.000000000 400.000000000 400.000000000 400.000000000 400.000000000 400.000000000 400.000000000 400.000000000 400.000000000 400.000000000 400.000000000 400.000000000 400.000000000 400.000000000 400.000000000 400.000000000 400.000000000 400.000000000 400.000000000 400.000000000 400.000000000 400.000000000 400.000000000 400.000000000 400.000000000 400.000000000 400.000000000 400.000000000 400.000000000 400.000000000 400.000000000 400.000000000 400.000000000 400.000000000 400.000000000 400.000000000 400.000000000 400.000000000 400.000000000 400.000000000 400.000000000 400.000000000 400.000000000 400.000000000 400.000000000 400.000000000 400.000000000 400.000000000 400.000000000 400.000000000 400.000000000 400.000000000 400.000000000 400.000000000 400.000000000 400.000000000 400.000000000 400.000000000 400.000000000 400.000000000 400.000000000 400.000000000 400.000000000 400.000000000 400.000000000 400.000000000 400.000000000 400.000000000 400.000000000 400.000000000 400.000000000 400.000000000 400.000000000 400.000000000 400.000000000 400.000000000 400.000000000 400.000000000 400.000000000 400.000000000 400.000000000 400.000000000 400.000000000 400.000000000 400.000000000 400.000000000 300.734085797 400.000000000 400.000000000 339.379663496 400.000000000 400.000000000 400.000000000 400.000000000 400.000000000 400.000000000 400.000000000 400.000000000 400.000000000 400.000000000 400.000000000 400.000000000 400.000000000 400.000000000 400.000000000 400.000000000 400.000000000 400.000000000 400.000000000 400.000000000 400.000000000 400.000000000 400.000000000 400.000000000 400.000000000 400.000000000 400.000000000 400.000000000 400.000000000 400.000000000 400.000000000 400.000000000 400.000000000 400.000000000 400.000000000 400.000000000 400.000000000 400.000000000 400.000000000 400.000000000 
    </DataArray>
    <DataArray Name="Pressure" type="Float32" Format="ascii">
    830.354138848 746.376536599 727.256632949 641.249579364 205.011810711 286.071855374 755.351129078 856.152062020 1408.239880196 1248.995783898 1102.528655892 874.745323945 686.402930695 526.783913625 854.300768275 148.302880269 255.579816072 1078.298766632 803.554284762 554.848725260 494.041339612 1437.455125408 1647.822284774 1733.925310473 1887.609165897 1227.072906785 989.111752629 1182.025051272 762.598228824 1497.786008645 1076.075676931 582.159953346 1124.140531812 2015.532129442 1822.634858474 1999.510526059 2178.223969115 2277.277240392 1680.905999100 1403.415714962 1728.547812039 1611.716037082 1554.754328826 1564.189717880 1648.666720450 1532.733491061 1815.869579419 1904.454081263 2432.337138217 2258.082336882 2464.877026004 2212.374396226 2050.715361201 1703.306968430 1876.571021250 1575.193704111 1983.491125844 1653.162759223 1802.575609458 2202.005606984 2431.434612878 2444.738831580 2238.230468677 2186.611708110 2280.306867310 2074.513370922 1683.528295047 1870.854025826 2141.529420967 1571.068819661 1806.579056973 1931.809279604 1707.126439542 1537.219963112 1836.269744862 1969.520179526 1995.743797700 1713.864719456 1884.538927397 1812.909370295 1708.342712891 1567.691998800 1617.018604042 1615.459405769 1144.269553091 1426.905509713 1092.842029567 590.239600980 1565.892684047 1525.934989683 1633.079072100 1432.889404174 1393.229722172 1239.121054874 1119.163830324 663.081331897 1187.621350215 958.809328603 505.032464210 164.985684330 859.579149671 1077.872644956 1110.257673374 872.868758834 746.011800278 629.447754572 753.297961745 903.527542555 266.017436306 592.545282561 567.027584866 721.560023351 174.264374471 917.462360058 288.254411298 800.204678560 862.473556305 18.512279569 679.444712006 332.748852702 128.711568229 738.885855109 344.427251236 513.385213241 371.827452403 508.445736136 717.856197097 676.182599744 613.999889861 354.441219758 715.146368356 520.542465574 261.453795572 1305.752753783 531.752278817 1070.425139417 594.617099876 194.101170907 633.796155209 1283.697627010 1367.168133032 1274.705727934 672.310297659 1428.635655076 971.013679841 460.958975540 423.603982753 431.510015965 186.124633538 283.435926270 754.074301499 596.044717879 413.081910197 934.696296183 563.681510209 476.723957176 705.599200268 188.016085783 199.167488658 1161.908354626 1459.601681796 1472.908181302 1392.206769694 1441.407306446 1476.231205736 1379.111989441 1439.767526637 1279.394924947 1413.498830022 160.086318856 509.957042945 277.655570841 400.954880643 1196.665632008 1293.370389231 765.161969086 698.503581118 488.887461795 343.323304942 1443.676597019 1431.478550941 1295.548226044 1425.361501739 1147.490475989 1462.061805102 1347.024625957 1407.623363286 741.964775248 1276.462296670 1389.697064797 1472.449487654 1006.073876188 361.355590649 525.243675068 327.842313024 143.682947375 1189.124192515 686.419964203 417.611684060 542.442492992 364.743596530 981.555139368 693.618104110 537.069570504 418.189082892 470.082070324 680.045977727 463.112946120 309.436698487 565.209798503 364.873697524 674.771386615 727.344288709 425.168116094 483.798855983 395.590361332 589.584051025 490.549912774 179.252161899 186.761378618 1209.794289400 164.506905637 446.623192277 1238.107396207 595.146702902 573.997067120 862.510225111 777.071526129 644.622540002 590.840121713 396.901617424 1072.112298053 300.022219195 756.854920022 409.956210029 429.582063754 466.761930406 434.386765138 418.815328236 211.262502636 199.388439041 403.170712991 438.023480569 259.256267694 364.155921340 785.487838487 394.391672676 787.895267638 93.690966430 23.605755552 
    </DataArray>
    <DataArray Name="Density" type="Float32" Format="ascii">
    2040.563235396 2040.529387462 2040.140866548 2040.112612231 2040.498828137 2040.775213111 2039.998338540 2040.119303007 2039.973629236 2040.150052172 2039.983796549 2040.376495643 2040.118399382 2040.486077769 2040.170427327 2040.281874960 2039.855366030 2039.915550219 2048.341904921 2040.073936862 2040.223694557 2040.151898701 2039.946215491 2040.212099805 2041.495932831 2040.149723952 2040.066770905 2039.953197982 2051.481235088 2039.860456346 2045.627840875 2044.036369415 2040.347412679 2043.593621536 2040.271758337 2040.331830749 2040.418869229 2045.718259816 2053.116705627 2040.484872550 2039.821198598 2040.472031181 2040.407491949 2040.227536190 2051.726635125 2040.238277347 2040.525698147 2041.347678897 2048.425983544 2040.517756277 2049.745986704 2040.457224768 2041.549339288 2052.990427660 2040.474950729 2040.314461865 2040.689563546 2040.284579370 2053.097617373 2041.014370763 2048.329800199 2049.662785765 2040.493080504 2040.412126600 2045.629369543 2041.698930921 2053.121915579 2040.502529904 2041.075880379 2040.287190692 2053.121831366 2041.533722625 2051.901524290 2040.250077879 2040.515157237 2040.343473221 2043.512495426 2040.224509865 2041.754122531 2040.275085885 2039.797892551 2040.163946240 2053.105787891 2040.477428429 2045.660724562 2040.763400280 2040.341985176 2044.185328659 2040.353385689 2039.856005636 2039.955781465 2040.181887268 2040.001176390 2040.168469603 2039.962848519 2051.950328871 2040.280051006 2040.155305902 2040.238621380 2040.206377894 2048.387402819 2039.954502592 2040.005259580 2040.152859411 2040.102578435 2040.137043231 2039.998414336 2040.387478898 2039.843869387 2040.524833359 2040.054019496 2040.161099355 2040.534494419 2040.065476675 2040.744236742 2040.544774240 2040.575523353 2040.351382160 2039.876047296 2040.432947746 2040.435723388 2040.074346776 2040.313193441 2039.991462770 2040.435754217 2039.854343844 2040.176013043 2039.993970513 2040.208283594 2040.090967731 2041.488348509 2040.277400762 2040.376460785 2041.194874585 2044.066847781 2040.082147091 2040.128194676 2039.997656345 2047.543732580 2040.133249257 2040.054044558 2043.075428750 2040.077290881 2045.353514196 2040.051856594 2039.949463690 2040.011062250 2045.373170850 2040.548550346 2040.350379918 2039.929421475 2040.085129771 2040.895235848 2045.563768189 2044.453459683 2040.514283853 2040.234612893 2040.336355880 2040.508436722 2040.075614868 2044.894294905 2042.783552918 2040.107987372 2043.069269628 2044.810429534 2040.125038329 2044.559305853 2040.054026222 2042.815466669 2040.128945367 2051.291706440 2049.867132794 2040.047650050 2041.782700793 2045.851976180 2047.570603373 2040.128575936 2045.941189387 2040.167921705 2044.781384998 2043.244224539 2040.005156663 2042.882803395 2040.061073294 2044.817989320 2040.130910295 2043.209977305 2040.010691097 2043.367803495 2040.106373084 2045.418277891 2040.093762279 2040.148068643 2051.308893537 2049.473220366 2040.210118913 2041.775797398 2040.139863996 2040.101874585 2040.035916288 2041.167385979 2046.040719268 2040.213274555 2044.343786253 2040.187314774 2040.098810899 2046.292410311 2040.291279378 2040.477780386 2040.246116005 2040.380738682 2049.785745282 2047.341559967 2040.196616150 2040.109570776 2040.264388842 2040.195760864 2040.270367812 2040.505739820 2040.334733793 2041.227540187 2040.108513519 2044.291281427 2040.083366429 2047.116769109 2040.128358646 2041.133253179 2040.091341029 2039.964952844 2040.138237037 2039.982348757 2040.058327125 2040.378644149 2039.878781892 2044.724704060 2040.568585043 2040.046309475 2039.979659530 2040.437206571 2040.354574901 2040.545417370 2039.982776141 2039.985320627 2040.358046748 2040.559220627 2040.081431923 2040.378247634 2039.845648634 2040.526397690 2040.337062661 
    </DataArray>
    <DataArray Name="Velocity" type="Float32"  NumberOfComponents="3" Format="ascii">