<?xml version="1.0"?>
<VTKFile type="PolyData" version="0.1" byte_order="LittleEndian">
 <PolyData>
  <Piece Name ="SoilBlock" NumberOfPoints="250" NumberOfVerts="250">
   <Points>
    <DataArray Name="Position" type="Float32"  NumberOfComponents="3" Format="ascii">
    1.68996 0.509903 0 1.71037 0.510396 0 1.72971 0.509428 0 1.74973 0.50906 0 1.72979 0.529775 0 1.75059 0.531829 0 1.76997 0.508993 0 1.79036 0.509305 0 1.85064 0.509255 0 1.83025 0.509531 0 1.81035 0.509418 0 1.78903 0.53132 0 1.76947 0.549132 0 1.79097 0.551788 0 1.76941 0.529468 0 1.82943 0.551742 0 1.81013 0.54838 0 1.84866 0.528967 0 1.8505 0.548218 0 1.80898 0.528953 0 1.82957 0.531146 0 1.87069 0.509598 0 1.89102 0.509285 0 1.91087 0.509779 0 1.93131 0.50921 0 1.86881 0.53129 0 1.87036 0.552069 0 1.88811 0.52861 0 1.89094 0.547877 0 1.92789 0.528438 0 1.93096 0.54766 0 1.90981 0.552421 0 1.90875 0.531419 0 1.9715 0.509169 0 1.95103 0.509997 0 1.99094 0.510332 0 2.03076 0.510602 0 2.01137 0.508988 0 1.98996 0.553078 0 1.94843 0.531658 0 1.97101 0.547115 0 1.95035 0.552686 0 1.96772 0.528167 0 1.98868 0.531979 0 2.01101 0.546666 0 2.03 0.55352 0 2.02897 0.532211 0 2.008 0.527939 0 2.05116 0.508833 0 2.07049 0.510968 0 2.09047 0.50874 0 2.11001 0.511042 0 2.04833 0.527895 0 2.05085 0.546488 0 2.06927 0.53223 0 2.07012 0.553659 0 2.10999 0.532411 0 2.11001 0.553766 0 2.09035 0.54635 0 2.08933 0.527845 0 2.16866 0.508871 0 2.12967 0.508737 0 2.14939 0.511021 0 2.189 0.510526 0 2.20862 0.509028 0 2.17194 0.527932 0 2.16877 0.546413 0 2.15096 0.532132 0 2.13037 0.52793 0 2.14972 0.553829 0 2.12988 0.546256 0 2.21217 0.527708 0 2.20841 0.546852 0 2.1895 0.553786 0 2.19129 0.532298 0 2.22925 0.510156 0 2.24896 0.509281 0 2.3094 0.509445 0 2.2883 0.50922 0 2.26878 0.510218 0 2.25114 0.527937 0 2.23065 0.552977 0 2.25083 0.546396 0 2.23059 0.53261 0 2.28709 0.54717 0 2.26859 0.554139 0 2.31053 0.532745 0 2.31126 0.552995 0 2.27232 0.531521 0 2.2929 0.528099 0 2.32963 0.509464 0 2.34907 0.510353 0 2.36743 0.509517 0 2.38915 0.508645 0 2.32977 0.528299 0 2.33271 0.545879 0 2.35259 0.530669 0 2.35124 0.556546 0 2.3754 0.527855 0 2.39177 0.535461 0 2.38598 0.553085 0 2.36372 0.545795 0 2.41092 0.509866 0 2.44657 0.510561 0 2.42982 0.510031 0 2.46965 0.506337 0 2.43101 0.532894 0 2.4198 0.543664 0 2.44277 0.554195 0 2.40604 0.526708 0 2.41458 0.559534 0 2.45543 0.525575 0 2.45698 0.541972 0 2.47925 0.537736 0 2.48839 0.521727 0 2.50337 0.507235 0 2.52686 0.51604 0 2.55377 0.509514 0 2.57976 0.508663 0 2.50906 0.528387 0 2.54625 0.52499 0 1.80915 0.569079 0 1.84923 0.5678 0 1.84929 0.589004 0 1.83076 0.572155 0 1.88907 0.60874 0 1.88993 0.587235 0 1.87101 0.592377 0 1.88869 0.567158 0 1.86884 0.572607 0 1.92918 0.606732 0 1.90913 0.593045 0 1.90964 0.5731 0 1.92828 0.56664 0 1.93029 0.586529 0 1.91105 0.612541 0 1.92934 0.628645 0 1.9489 0.573515 0 1.98955 0.573738 0 1.95022 0.593489 0 1.96878 0.605995 0 1.98887 0.594028 0 1.96816 0.566279 0 1.97071 0.585526 0 2.00836 0.565831 0 2.01051 0.585438 0 2.02957 0.594214 0 2.02928 0.573787 0 2.00861 0.605003 0 1.96913 0.64826 0 1.98895 0.633322 0 1.96984 0.626148 0 1.98993 0.613799 0 1.94877 0.613301 0 1.9511 0.632699 0 1.9913 0.65236 0 2.00995 0.62545 0 2.0093 0.645972 0 2.02941 0.652631 0 2.02939 0.613819 0 2.02969 0.633307 0 2.00942 0.668107 0 2.03091 0.67194 0 2.04897 0.565634 0 2.04995 0.585139 0 2.06925 0.574071 0 2.07016 0.59411 0 2.04945 0.604713 0 2.10984 0.573997 0 2.10986 0.594185 0 2.08948 0.604761 0 2.09013 0.584792 0 2.08939 0.565487 0 2.07082 0.63312 0 2.06871 0.653406 0 2.04963 0.625181 0 2.06881 0.614186 0 2.04988 0.644812 0 2.10962 0.633918 0 2.09053 0.624357 0 2.11093 0.652091 0 2.08871 0.645696 0 2.10975 0.613682 0 2.17156 0.565655 0 2.16945 0.584891 0 2.13021 0.604538 0 2.13009 0.584571 0 2.17154 0.604584 0 2.13029 0.565536 0 2.15082 0.574049 0 2.14953 0.59436 0 2.18994 0.594891 0 2.19119 0.574049 0 2.21256 0.565025 0 2.2082 0.585575 0 2.21369 0.604521 0 2.15088 0.652609 0 2.16933 0.645675 0 2.15096 0.614002 0 2.12979 0.624061 0 2.16972 0.624811 0 2.1301 0.644781 0 2.14902 0.632967 0 2.18458 0.654216 0 2.20726 0.625345 0 2.1887 0.635797 0 2.21298 0.640362 0 2.19068 0.613894 0 2.07093 0.670669 0 2.0704 0.688665 0 2.05049 0.687665 0 2.04853 0.666034 0 2.09027 0.687348 0 2.10964 0.673301 0 2.11176 0.689588 0 2.09176 0.664634 0 2.12964 0.665265 0 2.15871 0.67813 0 2.15489 0.669123 0 2.13252 0.682516 0 2.19751 0.662211 0 2.24816 0.605598 0 2.25257 0.584134 0 2.22933 0.575305 0 2.23191 0.593227 0 2.24906 0.566121 0 2.28495 0.585687 0 2.29818 0.6035 0 2.31002 0.592529 0 2.31022 0.575859 0 2.27354 0.573196 0 2.26748 0.596572 0 2.29408 0.564617 0 2.22327 0.652843 0 2.23576 0.641541 0 2.22827 0.616027 0 2.25906 0.620397 0 2.24241 0.629659 0 2.28488 0.627314 0 2.2696 0.637992 0 2.2819 0.611502 0 2.3271 0.565527 0 2.33698 0.586928 0 2.34625 0.572935 0 2.33359 0.602461 0 2.37782 0.565308 0 2.37446 0.5809 0 2.36246 0.592491 0 2.31886 0.613989 0 2.40435 0.571488 0 
    </DataArray>
   </Points>
   <PointData  Vectors="vector">
    <DataArray Name="SortedParticle_ID" type="Int32" Format="ascii">
    0 1 2 3 4 5 6 7 8 9 10 11 12 13 14 15 16 17 18 19 20 21 22 23 24 25 26 27 28 29 30 31 32 33 34 35 36 37 38 39 40 41 42 43 44 45 46 47 48 49 50 51 52 53 54 55 56 57 58 59 60 61 62 63 64 65 66 67 68 69 70 71 72 73 74 75 76 77 78 79 80 81 82 83 84 85 86 87 88 89 90 91 92 93 94 95 96 97 98 99 100 101 102 103 104 105 106 107 108 109 110 111 112 113 114 115 116 117 118 119 120 121 122 123 124 125 126 127 128 129 130 131 132 133 134 135 136 137 138 139 140 141 142 143 144 145 146 147 148 149 150 151 152 153 154 155 156 157 158 159 160 161 162 163 164 165 166 167 168 169 170 171 172 173 174 175 176 177 178 179 180 181 182 183 184 185 186 187 188 189 190 191 192 193 194 195 196 197 198 199 200 201 202 203 204 205 206 207 208 209 210 211 212 213 214 215 216 217 218 219 220 221 222 223 224 225 226 227 228 229 230 231 232 233 234 235 236 237 238 239 240 241 242 243 244 245 246 247 248 249 
    </DataArray>
    <DataArray Name="OriginalID" type="Int32" Format="ascii">
    0 1 2 4 3 5 6 9 20 16 12 10 8 11 7 18 14 21 22 13 17 25 30 36 42 26 27 31 32 43 44 38 37 56 49 64 81 72 66 50 58 51 57 65 74 83 82 73 90 100 110 120 91 92 101 102 121 122 112 111 150 130 140 160 169 151 152 141 131 142 132 170 171 162 161 178 186 208 201 194 187 180 188 179 203 196 209 210 195 202 214 220 225 230 215 216 221 222 226 231 232 227 234 241 238 244 239 236 229 235 224 242 233 237 240 246 245 248 249 243 247 15 23 24 19 35 34 29 33 28 47 40 39 45 46 41 48 52 67 53 61 68 59 60 75 76 85 84 77 63 70 62 69 54 55 71 78 79 88 86 87 80 89 93 94 103 104 95 123 124 115 114 113 106 107 96 105 97 126 116 127 117 125 153 154 135 134 155 133 143 144 164 163 172 173 174 147 157 145 136 156 137 146 158 175 166 167 165 108 109 99 98 119 128 129 118 138 149 148 139 159 191 190 181 182 189 205 206 212 211 197 198 204 168 176 183 192 184 185 177 199 217 218 223 200 228 213 207 193 219 
    </DataArray>
    <DataArray Name="ErodedLabel" type="Int32" Format="ascii">
    0 0 0 0 0 0 0 0 0 0 0 0 0 0 0 0 0 0 0 0 0 0 0 0 0 0 0 0 0 0 0 0 0 0 0 0 0 0 0 0 0 0 0 0 0 0 0 0 0 0 0 0 0 0 0 0 0 0 0 0 0 0 0 0 0 0 0 0 0 0 0 0 0 0 0 0 0 0 0 0 0 0 0 0 0 0 0 0 0 0 0 0 0 0 0 0 0 1 0 0 1 0 0 0 0 1 1 1 1 1 1 1 1 1 1 1 1 1 1 1 1 0 0 0 0 0 0 0 0 0 0 0 0 0 0 0 0 0 0 0 0 0 0 0 0 0 0 0 0 0 0 0 0 0 0 0 0 0 0 0 0 0 0 0 0 0 0 0 0 0 0 0 0 0 0 0 0 0 0 0 0 0 0 0 0 0 0 0 0 0 0 0 0 0 0 0 1 1 0 0 0 0 0 1 1 1 1 0 1 0 0 0 0 1 0 1 1 1 1 1 1 1 0 0 0 0 1 1 1 1 0 1 0 1 1 1 1 1 1 1 1 1 1 1 1 1 1 1 1 1 
    </DataArray>
    <DataArray Name="Indicator" type="Int32" Format="ascii">
    1 1 1 1 1 1 0 0 0 0 0 1 1 1 1 1 1 0 0 0 0 0 0 0 0 0 0 0 0 0 0 0 0 0 0 0 0 0 0 0 0 0 0 0 0 0 0 0 0 0 0 0 0 0 0 0 0 0 0 0 0 0 0 0 0 0 0 0 0 0 0 0 0 0 0 0 0 0 0 0 0 0 0 0 0 0 0 0 0 0 0 0 0 0 0 0 0 0 0 0 0 0 0 0 0 0 0 1 1 0 1 1 1 1 1 1 1 1 1 1 1 1 1 1 1 1 1 1 0 1 1 1 0 0 0 1 1 0 0 0 0 0 0 0 0 0 0 0 0 1 1 1 0 1 1 1 0 1 1 0 0 1 1 0 0 0 0 0 0 0 0 0 0 0 0 0 0 0 0 0 0 0 0 0 0 0 0 0 0 0 0 0 0 0 0 0 1 1 0 0 0 0 0 1 0 1 1 0 1 1 1 1 1 1 1 1 1 1 1 1 1 0 0 0 0 0 0 0 0 0 0 0 0 1 1 0 1 1 1 1 1 0 1 0 1 1 1 1 1 1 
    </DataArray>
    <DataArray Name="VerticalStress" type="Float32" Format="ascii">
    -1116.483187657 -332.442054618 -820.279139101 -1115.212706582 -474.050526201 -323.767118682 -1527.520564244 -1702.343017897 -1867.820197976 -1725.869134199 -1848.743781322 -524.760501172 -95.823865743 -134.939433992 -434.696928151 -775.622602602 -522.190736051 -1771.009892897 -1377.221946820 -1000.222411708 -1401.466509392 -1979.286727379 -2365.101540470 -2585.505937852 -2984.624052656 -1937.503145355 -1456.888664749 -2002.723847440 -1669.531255597 -2143.173347890 -1737.618219955 -1615.852912674 -1992.357815158 -3295.546381233 -3017.602190826 -3187.268085148 -3316.278308231 -3543.995649138 -2308.844642683 -2304.990398497 -2144.398914585 -1831.185293979 -2656.920784927 -2875.913371621 -2688.923630484 -2695.383929494 -3181.434191097 -3052.860870651 -3772.790202865 -3559.854995952 -3832.310623479 -3424.961224900 -3206.247513334 -2891.760454902 -3218.800017263 -2885.996449051 -3455.182952867 -2735.353321532 -2973.333016760 -3347.187970770 -3594.482752245 -3817.092915855 -3409.718036488 -3214.132548555 -3412.534038254 -3028.196675075 -2667.774961576 -2997.862986968 -3244.187365778 -2748.051004157 -2745.551601543 -2756.268524356 -2473.665412490 -2463.725954535 -3134.255425302 -3091.209049989 -3188.831426898 -2483.288749953 -2886.735708972 -2862.669484247 -2405.880701222 -2168.586972810 -2004.314625604 -2544.485891214 -1789.112581892 -1651.299054198 -2114.558756673 -1817.694583689 -2360.900643283 -2136.634192094 -2470.224782849 -2255.489290891 -2179.013547820 -2044.079561496 -1791.618971013 -1257.643006387 -1733.259800160 -1125.434192761 -1371.806442001 -1314.760932155 -436.017309784 -1123.234504591 -1638.192969223 -1381.006077665 -1326.914217159 -935.193239493 -764.597554523 -536.921079041 -177.061063246 -1021.418992269 -498.981638930 -526.819250639 -390.533282471 -283.462485022 -837.730212995 -941.668108665 -843.906835727 -695.864668065 -493.839634368 62.057267269 -126.703117393 -352.680830070 -539.658509023 -125.357842903 -238.957083172 -210.985469200 -488.746430119 -78.505924016 -1086.979891238 -453.217503836 -501.288593383 -661.716891733 -1358.931596192 -1733.179813828 -1416.723721101 -103.112408830 -115.495198444 -1842.605263558 -1833.060202181 -1472.324552402 -1181.743956840 -1620.263425806 -1884.463606313 -1776.760687498 -2081.206657080 -1590.954908949 -1619.121285608 -1973.087316483 -1620.552408348 -141.176632782 -531.671607706 -441.370363635 -1343.844570413 -395.073138202 -29.717449554 -53.170233181 -1364.096929166 -415.783656257 -221.880396921 -1853.372099263 -1371.619098458 -94.555372436 110.753619047 -2426.662819348 -1877.403683719 -2296.961480373 -2063.793460608 -1951.962082170 -2438.442322681 -2045.827252915 -1805.552335903 -2205.758236968 -2456.311897392 -1251.747737710 -690.680837308 -1749.312638746 -1899.381622386 -959.535660526 -1286.578746858 -1342.522066234 -699.408012463 -1017.044170068 -1706.862294331 -2109.477599354 -1732.057158776 -2183.795590244 -2079.478892464 -1409.325731243 -2541.032812693 -2140.348775422 -1941.744040815 -1440.696086119 -2060.526247566 -2189.142536955 -1878.213646081 -1426.171021488 -1023.998905426 -402.852392250 -1693.622553137 -1390.970999784 -1219.133319225 -840.229956850 -1275.931706892 -48.924820077 -878.960780409 -859.566651576 -221.355870295 -1233.738963524 -582.969094738 -453.468204989 -186.020093417 -281.257546282 -543.855573224 -1555.632580079 -353.448233409 -827.769639485 -400.520772451 -162.600796861 -17.486497887 -86.421454054 -255.327228609 -1133.868512011 -1682.066012205 -1911.591214432 -1216.877757071 -1917.767845536 -772.965213810 -421.697008792 -741.806737782 -1306.278012101 -1712.062785775 -653.216931301 -1242.862976351 -236.504652008 -202.204485848 -543.427276313 -247.985587350 -536.332218379 57.782958452 -243.331865357 -1028.934628700 -851.762909943 -704.578884284 -699.472960076 -194.776113919 -780.428397347 -372.652357493 -266.226527155 -101.850219207 -234.948157398 
    </DataArray>
    <DataArray Name="FrictionAngle" type="Float32" Format="ascii">
    0.523598776 0.523598776 0.523598776 0.523598776 0.523598776 0.523598776 0.523598776 0.523598776 0.523598776 0.523598776 0.523598776 0.523598776 0.523598776 0.523598776 0.523598776 0.523598776 0.523598776 0.523598776 0.523598776 0.523598776 0.523598776 0.523598776 0.523598776 0.523598776 0.523598776 0.523598776 0.523598776 0.523598776 0.523598776 0.523598776 0.523598776 0.523598776 0.523598776 0.523598776 0.523598776 0.523598776 0.523598776 0.523598776 0.523598776 0.523598776 0.523598776 0.523598776 0.523598776 0.523598776 0.523598776 0.523598776 0.523598776 0.523598776 0.523598776 0.523598776 0.523598776 0.523598776 0.523598776 0.523598776 0.523598776 0.523598776 0.523598776 0.523598776 0.523598776 0.523598776 0.523598776 0.523598776 0.523598776 0.523598776 0.523598776 0.523598776 0.523598776 0.523598776 0.523598776 0.523598776 0.523598776 0.523598776 0.523598776 0.523598776 0.523598776 0.523598776 0.523598776 0.523598776 0.523598776 0.523598776 0.523598776 0.523598776 0.523598776 0.523598776 0.523598776 0.523598776 0.523598776 0.523598776 0.523598776 0.523598776 0.523598776 0.523598776 0.523598776 0.523598776 0.523598776 0.523598776 0.523598776 0.315045717 0.523598776 0.488319893 0.011958517 0.523598776 0.523598776 0.458307299 0.523598776 0.031250799 0.013277491 0.012070590 0.009483086 0.138500285 0.009025229 0.010703779 0.010469611 0.009670012 0.010313511 0.010832373 0.010293442 0.010455093 0.009076149 0.009290685 0.009462450 0.523598776 0.523598776 0.523598776 0.523598776 0.523598776 0.523598776 0.523598776 0.523598776 0.523598776 0.523598776 0.523598776 0.523598776 0.523598776 0.523598776 0.523598776 0.523598776 0.523598776 0.523598776 0.523598776 0.523598776 0.523598776 0.523598776 0.523598776 0.523598776 0.523598776 0.523598776 0.523598776 0.523598776 0.523598776 0.523598776 0.523598776 0.523598776 0.523598776 0.523598776 0.523598776 0.523598776 0.523598776 0.523598776 0.523598776 0.523598776 0.523598776 0.523598776 0.523598776 0.523598776 0.523598776 0.523598776 0.523598776 0.523598776 0.523598776 0.523598776 0.523598776 0.523598776 0.523598776 0.523598776 0.523598776 0.523598776 0.523598776 0.523598776 0.523598776 0.523598776 0.523598776 0.523598776 0.523598776 0.523598776 0.523598776 0.523598776 0.523598776 0.523598776 0.523598776 0.523598776 0.523598776 0.523598776 0.523598776 0.523598776 0.523598776 0.059253100 0.001342441 0.523598776 0.523598776 0.523598776 0.523598776 0.523598776 0.016581473 0.029150849 0.032554323 0.014561798 0.523598776 0.078686909 0.523598776 0.523598776 0.523598776 0.523598776 0.332555709 0.442764949 0.000706604 0.029798631 0.032936923 0.040906982 0.072269248 0.015497282 0.125276275 0.523598776 0.523598776 0.523598776 0.523598776 0.259034310 0.011828729 0.009179918 0.147569501 0.523598776 0.094472235 0.523598776 0.013216796 0.013955559 0.070953626 0.009365583 0.010997123 0.008969604 0.011843928 0.010892560 0.254404382 0.010020833 0.010523297 0.009542573 0.009779679 0.007728289 0.008078582 0.009380584 0.007666721 
    </DataArray>
    <DataArray Name="Cohesion" type="Float32" Format="ascii">
    400.000000000 400.000000000 400.000000000 400.000000000 400.000000000 400.000000000 400.000000000 400.000000000 400.000000000 400.000000000 400.000000000 400.000000000 400.000000000 400.000000000 400.000000000 400.000000000 400.000000000 400.000000000 400.000000000 400.000000000 400.000000000 400.000000000 400.000000000 400.000000000 400.000000000 400.000000000 400.000000000 400.000000000 400.000000000 400.000000000 400.000000000 400.000000000 400.000000000 400.000000000 400.000000000 400.000000000 400.000000000 400.000000000 400.000000000 400.000000000 400.000000000 400.000000000 400.000000000 400.000000000 400.000000000 400.000000000 400.000000000 400.000000000 400.000000000 400.000000000 400.000000000 400.000000000 400.000000000 400.000000000 400.000000000 400.000000000 400.000000000 400.000000000 400.000000000 400.000000000 400.000000000 400.000000000 400.000000000 400.000000000 400.000000000 400.000000000 400.000000000 400.000000000 400.000000000 400.000000000 400.000000000 400.000000000 400.000000000 400.000000000 400.000000000 400.000000000 400.000000000 400.000000000 400.000000000 400.000000000 400.000000000 400.000000000 400.000000000 400.000000000 400.000000000 400.000000000 400.000000000 400.000000000 400.000000000 400.000000000 400.000000000 400.000000000 400.000000000 400.000000000 400.000000000 400.000000000 400.000000000 225.790154459 400.000000000 368.048307998 8.285498807 400.000000000 400.000000000 341.797589941 400.000000000 21.658239955 9.199455971 8.363156175 6.570271738 96.574108785 6.253031568 7.416078988 7.253824174 6.699789451 7.145663356 7.505181541 7.131757926 7.243765122 6.288312925 6.436960799 6.555973390 400.000000000 400.000000000 400.000000000 400.000000000 400.000000000 400.000000000 400.000000000 400.000000000 400.000000000 400.000000000 400.000000000 400.000000000 400.000000000 400.000000000 400.000000000 400.000000000 400.000000000 400.000000000 400.000000000 400.000000000 400.000000000 400.000000000 400.000000000 400.000000000 400.000000000 400.000000000 400.000000000 400.000000000 400.000000000 400.000000000 400.000000000 400.000000000 400.000000000 400.000000000 400.000000000 400.000000000 400.000000000 400.000000000 400.000000000 400.000000000 400.000000000 400.000000000 400.000000000 400.000000000 400.000000000 400.000000000 400.000000000 400.000000000 400.000000000 400.000000000 400.000000000 400.000000000 400.000000000 400.000000000 400.000000000 400.000000000 400.000000000 400.000000000 400.000000000 400.000000000 400.000000000 400.000000000 400.000000000 400.000000000 400.000000000 400.000000000 400.000000000 400.000000000 400.000000000 400.000000000 400.000000000 400.000000000 400.000000000 400.000000000 400.000000000 41.099862408 0.930070948 400.000000000 400.000000000 400.000000000 400.000000000 400.000000000 11.489034422 20.202023258 22.562267539 10.089422671 400.000000000 54.628683082 400.000000000 400.000000000 400.000000000 400.000000000 239.288312128 328.509551890 0.489549652 20.651210195 22.827624691 28.357007937 50.156955105 10.737691476 87.250869893 400.000000000 400.000000000 400.000000000 400.000000000 183.588917537 8.195565953 6.360212139 102.987817070 400.000000000 65.647702974 400.000000000 9.157397864 9.669322898 49.240774731 6.488856071 7.619337743 6.214490861 8.206097416 7.546885521 180.160151123 6.942869431 7.291023018 6.611488965 6.775776693 5.354422536 5.597127318 6.499249792 5.311764267 
    </DataArray>
    <DataArray Name="Pressure" type="Float32" Format="ascii">
    809.677957169 1075.246943682 1142.069271557 1005.323262276 719.745595283 809.702906478 1017.121287665 1074.197898171 1705.158247742 1486.642076615 1290.462576713 1175.967193644 858.349120829 883.766055114 1059.623697740 803.443218849 1015.702354764 1025.485147483 746.778863278 1190.517193172 1020.803702423 1753.775613449 1847.831109382 1805.439899860 1914.592356306 1133.454246369 860.222250554 1382.730855807 1048.129592015 1717.470343485 1475.406534809 1179.299486605 1577.075982774 2117.843445122 1935.024898277 2118.907942132 2243.447697977 2345.409653979 1594.200542410 1803.467112894 1614.708911790 1506.196020861 1817.551053999 1820.047420204 1629.987071390 1650.153084716 1958.803845054 1893.705591716 2512.706013686 2274.464957365 2427.608791819 2258.031973921 2001.623275927 1676.514347189 1918.053975174 1758.661383183 2180.054774234 1768.212026125 1847.448622640 2088.858081204 2307.058301160 2517.288991725 2221.018063785 2103.362211639 2180.765309768 1911.177364916 1603.317225140 1838.438429499 2025.879056140 1707.386946462 1766.451984951 1823.227776981 1630.035194101 1547.823316674 2014.317539303 1986.587916691 1968.831598818 1746.936237774 1817.264113367 1766.285847390 1690.899076892 1407.236181175 1500.995797374 1725.657413671 1410.729461233 1323.050441070 1333.855563526 1135.163664529 1813.106799607 1558.201243260 1732.205822190 1583.130349643 1269.657477277 1757.062003944 1030.198428655 693.800488218 1467.689341895 868.328605211 1308.589943974 917.895245243 508.839019969 830.410252715 1268.224888853 872.082532023 1133.473599147 903.947785650 665.683276926 447.582045465 137.293333056 761.331189446 476.394848874 508.870705404 360.569793799 300.486047042 850.138925212 930.547474439 846.156160313 712.172258911 469.189764765 -54.337176532 120.581544643 686.589386677 864.311230989 693.289744439 657.710751266 581.270086350 935.474962614 760.812280067 971.629928320 964.133136277 777.781005281 749.379140864 798.151240024 947.696396459 642.981412825 584.588136143 627.666601873 943.017603808 1390.055519477 719.809452767 724.881834498 951.354187409 1296.995538796 871.469761979 1576.964090330 1428.163012170 1336.585483989 1665.765882165 886.122697660 533.477820168 679.523953304 814.831630428 679.130003598 827.961919644 657.267767335 496.934033903 571.080569979 687.049154221 749.238354689 739.682180460 524.947176379 530.764562541 529.312401870 1588.201379047 1367.847220278 1479.335304212 1258.878687577 987.143648909 1630.503828490 1267.187354014 1231.129874886 1495.167379155 1609.685199066 861.874983190 722.003318191 559.435003446 928.920787287 750.218439761 1191.517544793 1181.158672907 922.742288843 1060.003825969 1124.965299353 1560.270363160 1410.021242761 966.403703640 1202.353622093 1289.812970699 1567.755730046 1427.477761450 1067.852244673 1347.125477183 1480.247752164 1273.533790376 1175.748411818 960.007255413 1011.627431687 403.558881206 737.135030326 734.117966795 828.622231934 827.339514033 723.082832330 45.705697886 785.952722961 817.266859926 195.262789260 882.570823195 319.317230751 28.780524697 223.455402918 678.289256353 -217.202556534 490.587290680 -412.665952943 568.024112424 365.853792375 199.390188623 51.983392629 -82.332695091 240.120956129 1105.812864810 929.886384501 1062.775415812 666.612356286 1178.887394680 506.376375752 450.964951828 787.860007671 1025.508451044 1235.516179928 577.100791082 914.519581966 221.226113054 205.305652813 484.558243586 340.768574899 586.238506847 -46.547873786 242.179205762 1061.871476486 507.853677789 694.323927170 642.156952617 208.877111780 814.869095932 357.160983161 250.930414118 131.985500288 226.258316551 
    </DataArray>
    <DataArray Name="Density" type="Float32" Format="ascii">
    2040.643575409 2040.585540261 2040.164795457 2040.311294164 2040.389781812 2040.383313032 2040.135056640 2040.258325531 2043.042848192 2040.205079528 2050.334021948 2040.082983497 2040.317346329 2040.426627365 2040.143793712 2040.182564642 2040.005680356 2040.059324210 2044.094204135 2039.981777410 2040.056125349 2040.228103024 2052.207519015 2040.226134495 2055.238863173 2039.959182191 2040.027034807 2040.054397982 2063.117201404 2040.130544215 2048.674316233 2040.041122969 2039.949624854 2061.901212869 2040.258678407 2040.282440633 2040.380921219 2068.155817987 2039.933712390 2039.936934815 2061.421770092 2040.027510500 2042.643259447 2039.963713178 2058.247256267 2039.959305971 2039.873069868 2048.696396517 2071.640479790 2040.467960991 2078.478354078 2040.567136229 2054.003888627 2058.743107795 2039.980561137 2039.750229721 2039.721137987 2040.062169950 2061.296959173 2054.793018333 2073.469768208 2079.408770477 2040.446717730 2040.444008227 2063.293180580 2053.859584302 2059.474696228 2040.105901012 2054.292195115 2039.729066139 2061.469321442 2053.683775108 2058.412350730 2040.169941882 2039.382721921 2040.236106293 2073.177384023 2040.104567710 2052.295699977 2040.386614486 2040.235746954 2040.040813470 2072.908528404 2040.052351695 2046.598204605 2040.385880022 2039.677235474 2039.353362462 2039.459563612 2050.162121542 2065.185831401 2068.232252579 2055.090888264 2038.999534142 2040.811706103 2040.873998649 2038.905297632 2042.307941973 2039.787873565 2040.044243169 2040.843600714 2062.501129545 2062.429096386 2084.486528878 2079.464337410 2040.246551758 2039.700105047 2040.344572621 2040.682311943 2040.734898576 2039.878929865 2040.514545993 2040.166350143 2040.549567026 2039.337282738 2039.923196096 2039.472389473 2040.069560719 2040.639392240 2041.622601461 2040.930087101 2040.271611681 2039.997270809 2040.300315240 2040.423832025 2040.311513583 2039.915758731 2040.391544553 2039.965342531 2040.138328770 2040.041936252 2040.065746898 2040.060708441 2056.119133989 2040.058818010 2040.451352808 2040.219045579 2039.967198385 2039.904604474 2039.860646272 2040.055388198 2047.835682958 2053.110006912 2056.213566983 2056.968369226 2040.839315559 2042.408568836 2039.880327084 2040.235722904 2040.234577125 2040.075972078 2039.957124078 2048.049252960 2040.163240038 2040.404170663 2040.486675351 2040.002353578 2039.996375066 2040.169854260 2042.419047115 2058.446049522 2040.170864978 2040.435636343 2059.272602307 2045.681922165 2040.042215970 2039.880946895 2041.031816939 2039.775871477 2040.154256011 2042.141678855 2048.024265349 2059.277124080 2044.933049191 2073.449878775 2042.336518950 2043.361305139 2039.756744882 2052.650577862 2040.037478786 2067.609097793 2039.783163328 2049.818144430 2059.761146055 2040.216058376 2042.951985498 2047.787181882 2047.496865124 2059.869253323 2039.984263032 2040.083491971 2052.101585758 2039.943487955 2051.062869794 2039.690037822 2039.493409643 2095.356254572 2055.180760042 2049.854049399 2040.340593362 2039.919602158 2040.018670693 2070.877826654 2041.201326166 2061.530186528 2064.745677918 2070.527923716 2040.535804493 2059.869254952 2040.339738523 2040.347346564 2039.899178440 2040.872694969 2105.737616184 2041.121886209 2039.446342912 2040.369679380 2040.134372855 2082.343537842 2040.794103972 2040.051422631 2062.360712686 2043.775279096 2051.903525147 2050.834824405 2039.930029902 2041.185342947 2040.549498891 2040.668628407 2039.057183974 2044.839267019 2040.912970437 2042.511984578 2040.182566498 2040.617783164 2045.678889408 2040.931239420 2074.305447582 2041.370494690 2040.228694065 2037.767440339 2063.965832300 2039.461912081 2039.913863526 2040.751931275 2039.174800794 2040.409758019 2040.550932571 2040.701290351 2040.600320132 
    </DataArray>
    <DataArray Name="Velocity" type="Float32"  NumberOfComponents="3" Format="ascii">