<?xml version="1.0"?>
<VTKFile type="PolyData" version="0.1" byte_order="LittleEndian">
 <PolyData>
  <Piece Name ="SoilBlock" NumberOfPoints="250" NumberOfVerts="250">
   <Points>
    <DataArray Name="Position" type="Float32"  NumberOfComponents="3" Format="ascii">
    1.69002 0.509613 0 1.71116 0.511367 0 1.73119 0.509759 0 1.74956 0.50895 0 1.726 0.529372 0 1.74797 0.534986 0 1.7735 0.507961 0 1.79443 0.508474 0 1.81567 0.508834 0 1.83584 0.50909 0 1.80163 0.528336 0 1.7629 0.526688 0 1.78352 0.53054 0 1.77056 0.549308 0 1.79077 0.552872 0 1.84133 0.529871 0 1.82199 0.529558 0 1.83063 0.55061 0 1.81092 0.548343 0 1.89665 0.50909 0 1.85623 0.508889 0 1.87663 0.50926 0 1.91657 0.509563 0 1.93636 0.509342 0 1.86101 0.529174 0 1.85241 0.5494 0 1.87194 0.549801 0 1.88077 0.529948 0 1.89365 0.549454 0 1.91269 0.549506 0 1.90081 0.529258 0 1.9416 0.529541 0 1.92133 0.529721 0 1.93335 0.549684 0 1.95624 0.509555 0 1.97586 0.509557 0 2.01511 0.509659 0 1.99549 0.509679 0 2.03414 0.510153 0 1.98272 0.529942 0 1.97343 0.54892 0 1.95233 0.549529 0 1.96204 0.529547 0 2.0245 0.53085 0 2.00303 0.529154 0 2.01301 0.547624 0 1.99232 0.550555 0 2.03219 0.552189 0 2.05402 0.508707 0 2.07177 0.512013 0 2.10905 0.513532 0 2.09134 0.507314 0 2.12664 0.507324 0 2.05292 0.546059 0 2.06714 0.531977 0 2.07106 0.553543 0 2.0443 0.528607 0 2.12703 0.54621 0 2.10856 0.554679 0 2.09234 0.545037 0 2.08766 0.528333 0 2.11214 0.531402 0 2.14654 0.511669 0 2.16542 0.508236 0 2.18626 0.510195 0 2.20532 0.508922 0 2.15469 0.531662 0 2.13474 0.528792 0 2.14771 0.552301 0 2.16842 0.547757 0 2.19025 0.552257 0 2.19372 0.531752 0 2.17525 0.528303 0 2.21542 0.528432 0 2.21037 0.545718 0 2.24369 0.508919 0 2.22515 0.510313 0 2.26361 0.509728 0 2.29912 0.510746 0 2.2817 0.510189 0 2.23081 0.550433 0 2.24978 0.551467 0 2.23735 0.530433 0 2.25723 0.530165 0 2.30054 0.529806 0 2.29464 0.548666 0 2.27299 0.550735 0 2.2772 0.531721 0 2.31936 0.509207 0 2.34298 0.50981 0 2.37647 0.517197 0 2.36465 0.508847 0 2.39769 0.506978 0 2.34137 0.551321 0 2.34534 0.529023 0 2.33638 0.561616 0 2.31897 0.545911 0 2.3238 0.529941 0 2.39926 0.526025 0 2.39558 0.544885 0 2.37055 0.561832 0 2.37827 0.539631 0 2.36022 0.540314 0 2.42273 0.506854 0 2.4355 0.513904 0 2.46978 0.515983 0 2.49054 0.511081 0 2.45484 0.508399 0 2.41503 0.527275 0 2.4351 0.548145 0 2.40481 0.558871 0 2.42231 0.556074 0 2.43676 0.531659 0 2.48444 0.53282 0 2.45569 0.542256 0 2.46715 0.542129 0 2.49217 0.547761 0 2.53042 0.511954 0 2.51032 0.511843 0 2.55119 0.510973 0 2.57209 0.510986 0 2.53588 0.533576 0 2.50754 0.537791 0 2.52086 0.539186 0 2.55835 0.536403 0 2.58504 0.545329 0 2.57399 0.532464 0 2.54641 0.547961 0 2.59407 0.511252 0 2.61538 0.510826 0 2.67706 0.510666 0 2.63583 0.51075 0 2.65538 0.510437 0 2.62662 0.533452 0 2.61184 0.540555 0 2.59813 0.532844 0 2.65771 0.535029 0 2.67527 0.532269 0 2.64329 0.539816 0 2.69861 0.507308 0 2.72298 0.511695 0 2.77098 0.511328 0 2.74637 0.510539 0 2.72432 0.537319 0 2.68974 0.539598 0 2.70517 0.529121 0 2.75947 0.531668 0 2.74117 0.534396 0 1.80784 0.567999 0 1.84515 0.567784 0 1.85013 0.589089 0 1.82855 0.574193 0 1.88867 0.607831 0 1.88949 0.586708 0 1.87075 0.594014 0 1.88393 0.566878 0 1.86532 0.572437 0 1.92681 0.605761 0 1.90912 0.592422 0 1.9048 0.571998 0 1.92358 0.567879 0 1.93045 0.586306 0 1.90956 0.614357 0 1.92953 0.627711 0 1.9451 0.57154 0 1.98981 0.592118 0 1.98569 0.571759 0 1.94983 0.592728 0 1.96725 0.604379 0 1.96417 0.567168 0 1.96995 0.585526 0 2.00696 0.604875 0 2.00995 0.584935 0 2.03032 0.593227 0 2.00551 0.566668 0 2.02646 0.572712 0 1.9676 0.624201 0 1.98712 0.613054 0 1.94614 0.613227 0 1.95073 0.634189 0 1.97105 0.645665 0 1.98496 0.633342 0 2.02622 0.630489 0 2.02622 0.612243 0 2.00389 0.639989 0 2.00558 0.625128 0 2.04644 0.565588 0 2.05074 0.583687 0 2.06856 0.573779 0 2.06996 0.593841 0 2.04804 0.603323 0 2.11249 0.572277 0 2.10462 0.595339 0 2.08468 0.604152 0 2.09331 0.583485 0 2.08742 0.565936 0 2.12777 0.58514 0 2.08091 0.627624 0 2.04029 0.629949 0 2.05336 0.623625 0 2.06574 0.616211 0 2.12299 0.611919 0 2.11779 0.623864 0 2.09921 0.618969 0 2.17338 0.565104 0 2.15296 0.573598 0 2.16818 0.586658 0 2.13077 0.603104 0 2.135 0.566344 0 2.14834 0.594486 0 2.18343 0.607226 0 2.19496 0.576169 0 2.201 0.604294 0 2.21041 0.565956 0 2.21189 0.596934 0 2.18555 0.587162 0 2.1571 0.611567 0 2.1619 0.61282 0 2.22306 0.5905 0 2.24148 0.595234 0 2.2475 0.569549 0 2.25553 0.586787 0 2.22577 0.571414 0 2.28812 0.589312 0 2.27066 0.582753 0 2.27439 0.566374 0 2.29865 0.571818 0 2.30042 0.583229 0 2.3147 0.565318 0 2.33973 0.576126 0 2.35955 0.570833 0 2.38756 0.567752 0 2.79548 0.511157 0 2.81906 0.511252 0 2.84404 0.510206 0 2.80017 0.534405 0 2.77906 0.53583 0 2.82409 0.533995 0 2.84829 0.532053 0 2.8705 0.508537 0 2.90352 0.506312 0 2.9381 0.513971 0 2.87225 0.530814 0 2.89307 0.523734 0 2.91907 0.52525 0 2.96163 0.517659 0 2.98267 0.510577 0 3.0234 0.506856 0 3.00495 0.519266 0 3.05239 0.50851 0 
    </DataArray>
   </Points>
   <PointData  Vectors="vector">
    <DataArray Name="SortedParticle_ID" type="Int32" Format="ascii">
    0 1 2 3 4 5 6 7 8 9 10 11 12 13 14 15 16 17 18 19 20 21 22 23 24 25 26 27 28 29 30 31 32 33 34 35 36 37 38 39 40 41 42 43 44 45 46 47 48 49 50 51 52 53 54 55 56 57 58 59 60 61 62 63 64 65 66 67 68 69 70 71 72 73 74 75 76 77 78 79 80 81 82 83 84 85 86 87 88 89 90 91 92 93 94 95 96 97 98 99 100 101 102 103 104 105 106 107 108 109 110 111 112 113 114 115 116 117 118 119 120 121 122 123 124 125 126 127 128 129 130 131 132 133 134 135 136 137 138 139 140 141 142 143 144 145 146 147 148 149 150 151 152 153 154 155 156 157 158 159 160 161 162 163 164 165 166 167 168 169 170 171 172 173 174 175 176 177 178 179 180 181 182 183 184 185 186 187 188 189 190 191 192 193 194 195 196 197 198 199 200 201 202 203 204 205 206 207 208 209 210 211 212 213 214 215 216 217 218 219 220 221 222 223 224 225 226 227 228 229 230 231 232 233 234 235 236 237 238 239 240 241 242 243 244 245 246 247 248 249 
    </DataArray>
    <DataArray Name="OriginalID" type="Int32" Format="ascii">
    0 1 2 4 3 5 6 9 12 16 13 7 10 8 11 21 17 18 14 30 20 25 36 42 26 22 27 31 32 38 37 50 43 44 49 56 72 64 81 65 58 51 57 82 73 74 66 83 90 100 120 110 130 92 101 102 91 132 122 112 111 121 140 150 160 169 141 131 142 152 162 161 151 170 171 186 178 194 208 201 180 188 179 187 202 203 196 195 214 220 226 225 230 227 215 217 216 209 238 235 174 231 221 234 241 128 191 242 232 127 197 118 236 166 190 146 119 138 156 183 157 222 137 211 165 139 175 129 167 184 239 212 223 148 147 205 198 228 149 244 176 218 199 168 158 159 206 192 15 23 24 19 35 34 29 33 28 47 40 39 45 46 41 48 52 68 67 53 61 59 60 77 76 85 75 84 62 69 54 55 63 70 79 86 71 78 93 94 103 104 95 123 124 115 114 113 134 80 87 96 105 97 89 88 153 143 154 135 133 144 98 163 106 172 145 164 116 125 173 99 189 107 181 108 155 204 182 126 210 117 136 109 200 213 233 185 177 193 207 240 246 237 219 224 229 243 245 248 247 249 
    </DataArray>
    <DataArray Name="ErodedLabel" type="Int32" Format="ascii">
    1 0 0 1 0 0 0 0 0 0 0 0 0 0 0 0 0 0 0 0 0 0 0 0 0 0 0 0 0 0 0 0 0 0 0 0 0 0 0 0 0 0 0 0 0 0 0 0 0 0 0 0 0 0 0 0 0 0 0 0 0 0 0 0 0 0 0 0 0 0 0 0 0 0 0 0 0 0 0 0 0 0 0 0 0 1 0 0 0 0 0 0 0 1 0 1 1 0 0 1 1 1 1 0 0 1 1 1 1 1 1 1 1 1 1 1 1 1 1 1 1 1 1 1 1 1 1 1 1 1 1 1 1 1 1 1 1 1 1 1 1 1 1 1 1 1 1 1 0 0 0 0 0 0 0 0 0 0 0 0 0 0 0 0 0 0 0 0 0 0 0 0 0 0 0 0 0 1 0 0 1 1 1 1 0 1 0 0 0 0 1 0 1 1 0 0 1 1 1 1 1 1 1 1 0 0 1 1 0 1 1 1 1 1 1 1 1 1 1 1 1 1 1 1 1 1 1 1 1 1 1 1 1 1 1 1 1 1 1 1 1 1 1 1 1 1 1 1 1 1 
    </DataArray>
    <DataArray Name="Indicator" type="Int32" Format="ascii">
    1 1 1 0 1 1 0 0 0 0 0 1 1 1 1 0 0 0 1 0 0 0 0 0 0 0 0 0 0 0 0 0 0 0 0 0 0 0 0 0 0 0 0 0 0 0 0 0 0 0 0 0 0 0 0 0 0 0 0 0 0 0 0 0 0 0 0 0 0 0 0 0 0 0 0 0 0 0 0 0 0 0 0 0 0 0 0 0 0 0 0 0 0 0 0 1 0 0 0 1 1 0 0 0 0 0 0 0 0 1 1 1 1 1 1 1 1 0 0 0 0 1 1 1 1 1 1 1 0 0 1 0 0 1 1 1 1 1 1 1 0 0 0 1 1 1 1 1 1 1 1 1 1 1 1 0 1 1 1 0 0 0 1 1 0 0 0 0 0 0 0 0 0 0 0 0 1 0 1 1 1 1 1 1 1 1 0 0 0 0 1 0 0 0 0 0 0 1 1 1 1 1 1 1 0 0 0 1 0 1 1 0 1 0 1 0 1 1 1 1 1 1 0 1 1 0 1 1 1 1 1 1 0 0 1 1 1 1 1 1 1 1 1 1 1 1 1 1 1 1 
    </DataArray>
    <DataArray Name="VerticalStress" type="Float32" Format="ascii">
    -495.785846963 -839.201798091 -849.501728600 -1053.851480109 -377.851152080 -205.891766935 -1642.442552901 -1846.257551975 -1839.106850293 -1811.890669363 -908.027148082 -628.148452116 -615.189200118 -202.318072634 -271.707962897 -1554.907118245 -1273.933879372 -1078.862778722 -612.460939957 -2460.450076061 -2089.260176991 -2351.331812145 -2461.006349970 -2523.629778132 -1583.076765329 -1182.386867451 -1019.541287414 -1625.752014260 -1222.608824030 -1684.860191369 -1968.951171722 -2390.707433130 -2283.725086797 -1951.782408617 -2633.587570164 -2687.284966870 -2738.348441677 -2736.998758186 -2789.848578637 -2355.104165066 -2034.157345705 -1955.999768874 -2335.092481097 -2307.426079445 -2359.538516254 -2072.248531865 -2119.071578306 -1774.741599370 -2595.425741899 -2512.183389482 -2382.761413128 -2484.803545205 -2469.591754252 -1884.709651437 -2267.157966178 -1754.932413900 -2291.596701428 -1642.350379608 -1681.170001242 -2047.237300673 -2250.129624285 -2028.083820225 -2481.221846977 -2351.669022529 -2376.136508737 -2464.206919457 -1941.745230542 -1831.729284923 -1378.567907950 -1890.750743125 -1281.477245802 -1897.285789860 -2101.317882896 -2144.338361148 -1475.830394814 -2121.619999341 -2368.242381689 -2072.433996923 -2034.882766621 -1998.404058554 -1435.593142944 -1124.215974013 -1526.578426645 -1619.602104542 -1321.833395365 -1696.646840001 -955.840282904 -1781.391646372 -2142.290817176 -1966.436337684 -1250.273794088 -1570.738555812 -1732.867268135 -795.475466141 -1717.217725285 -254.574208762 -481.021725697 -1470.348270060 -1091.203901697 -442.453898485 -318.071448919 -984.881507330 -1035.436772064 -1621.505568204 -1265.678724287 -1118.571581928 -1406.942275502 -1392.614655477 -570.419937546 -423.857971615 -389.386926866 -480.339448587 -779.352297559 -757.666647257 -614.531778866 -270.211015621 4.818153529 -976.251703522 -924.883938129 -876.287345205 -979.006570465 -508.776231257 -501.478386569 69.980121433 -375.895446190 -11.263877145 -251.564980946 -47.760070892 -1259.506127800 -1168.121680813 -535.333060800 -498.812905390 -674.394823017 -174.571870801 17.078823775 -614.317838888 -10.252575067 -485.026800612 6.899875879 -1096.633933457 -647.336472408 -1493.409222832 -903.235277059 -103.371274718 -31.561262413 -586.190107801 -298.076641888 -433.725941998 -382.931492683 -946.280712461 -573.825680483 -622.290535807 -619.136431274 -896.118474556 -548.771285827 -838.895891909 -846.634550423 -900.684543819 -986.454224312 -1010.559782358 -1280.649394960 -881.612614018 -642.958492918 -546.114751967 -1143.274042273 -1134.551512612 -1647.989837375 -775.278304381 -816.324405620 -1506.392552900 -1039.668534440 -1070.534744588 -1376.962546739 -1125.578437903 -1862.926404043 -1373.549848168 -839.693033573 -762.773837240 -784.917449393 -379.808756121 -210.343443183 -123.968729881 -140.834207374 -687.256966803 -204.760884586 -353.472750935 -1326.651159304 -964.424128536 -1201.309945614 -956.953229773 -727.007234784 -1285.302607562 -372.223151376 -787.677740680 -1134.564474799 -1612.486590051 -1258.874731550 -108.880663540 -195.863884280 -288.070971810 -471.870034404 -554.794721947 -132.572923898 -363.127636978 -1269.977517265 -1124.225520952 -1011.089673874 -373.890831020 -1186.683814152 -848.267296617 -304.280364158 -956.155668673 -268.285963459 -1295.946100328 -319.931772098 -194.228175439 -24.313148233 -143.135809013 -339.342921570 -247.518709931 -206.450023720 -555.837906644 -922.098599660 -109.672809307 -56.497620009 -1073.325264750 -555.095043906 28.634332998 -754.216270948 -153.511161220 -201.442713831 -231.979903084 -1355.703083801 -1206.888299623 -1213.225345708 -890.558765589 -800.632357988 -1004.514982891 -591.403552820 -875.633145368 -711.470955930 -707.473504789 -332.713100873 -302.301753473 -176.786334640 -537.443163415 -624.837232496 -472.097624396 -549.127490544 -394.375381018 
    </DataArray>
    <DataArray Name="FrictionAngle" type="Float32" Format="ascii">
    0.523598776 0.523598776 0.523598776 0.009705040 0.523598776 0.523598776 0.523598776 0.523598776 0.523598776 0.523598776 0.523598776 0.523598776 0.523598776 0.523598776 0.523598776 0.523598776 0.523598776 0.523598776 0.523598776 0.523598776 0.523598776 0.523598776 0.523598776 0.523598776 0.523598776 0.523598776 0.523598776 0.523598776 0.523598776 0.523598776 0.523598776 0.523598776 0.523598776 0.523598776 0.523598776 0.523598776 0.523598776 0.523598776 0.523598776 0.523598776 0.523598776 0.523598776 0.523598776 0.523598776 0.523598776 0.523598776 0.523598776 0.523598776 0.523598776 0.523598776 0.523598776 0.523598776 0.523598776 0.523598776 0.523598776 0.523598776 0.523598776 0.523598776 0.523598776 0.523598776 0.523598776 0.523598776 0.523598776 0.523598776 0.523598776 0.523598776 0.523598776 0.523598776 0.523598776 0.523598776 0.523598776 0.523598776 0.523598776 0.523598776 0.523598776 0.523598776 0.523598776 0.523598776 0.523598776 0.523598776 0.523598776 0.523598776 0.523598776 0.523598776 0.523598776 0.458505334 0.235033552 0.523598776 0.523598776 0.523598776 0.523598776 0.523598776 0.523598776 0.000040687 0.523598776 0.000007310 0.098354728 0.523598776 0.523598776 0.001341324 0.000667772 0.001590801 0.005664074 0.523598776 0.458307299 0.000942203 0.000379888 0.003784792 0.000717582 0.000921005 0.000766786 0.000408773 0.000186032 0.000783113 0.001119793 0.000883085 0.000853324 0.001044122 0.001120598 0.001167378 0.000653927 0.000806123 0.000717059 0.000073185 0.001048426 0.000892493 0.000915646 0.000861056 0.001246346 0.001415053 0.000722174 0.001708060 0.001666098 0.000974810 0.000955989 0.000896981 0.000413035 0.001021100 0.000865027 0.006713551 0.000615220 0.000121123 0.000191895 0.001086154 0.001226998 0.001033089 0.001404397 0.001170498 0.523598776 0.523598776 0.523598776 0.523598776 0.523598776 0.523598776 0.523598776 0.523598776 0.523598776 0.523598776 0.517851370 0.523598776 0.523598776 0.523598776 0.523598776 0.523598776 0.523598776 0.523598776 0.523598776 0.523598776 0.523598776 0.523598776 0.523598776 0.523598776 0.523598776 0.523598776 0.523598776 0.523598776 0.208968794 0.066053041 0.296860589 0.353356838 0.057854151 0.023709021 0.017241332 0.026205985 0.019641146 0.005353318 0.523598776 0.523598776 0.523598776 0.405813169 0.037395890 0.523598776 0.024343086 0.005525001 0.523598776 0.523598776 0.101488388 0.005399971 0.008157210 0.008281590 0.002136140 0.003103833 0.003606671 0.003867700 0.523598776 0.523598776 0.015208238 0.002989595 0.523598776 0.003496647 0.002303630 0.040275286 0.002113777 0.523598776 0.000600122 0.002025080 0.001561120 0.000879002 0.000725065 0.001560853 0.006350469 0.001629907 0.002449516 0.001252223 0.001219671 0.001508808 0.000996220 0.001119021 0.002494507 0.001290645 0.001199363 0.001053563 0.000616411 0.001490685 0.001751706 0.001401265 0.001379984 0.001602127 0.001604585 0.001893384 0.002315696 0.002836446 0.001659578 0.001794875 0.001893714 0.003340633 0.002416833 0.001747994 0.001537353 0.001289171 
    </DataArray>
    <DataArray Name="Cohesion" type="Float32" Format="ascii">
    400.000000000 400.000000000 400.000000000 6.724060009 400.000000000 400.000000000 400.000000000 400.000000000 400.000000000 400.000000000 400.000000000 400.000000000 400.000000000 400.000000000 400.000000000 400.000000000 400.000000000 400.000000000 400.000000000 400.000000000 400.000000000 400.000000000 400.000000000 400.000000000 400.000000000 400.000000000 400.000000000 400.000000000 400.000000000 400.000000000 400.000000000 400.000000000 400.000000000 400.000000000 400.000000000 400.000000000 400.000000000 400.000000000 400.000000000 400.000000000 400.000000000 400.000000000 400.000000000 400.000000000 400.000000000 400.000000000 400.000000000 400.000000000 400.000000000 400.000000000 400.000000000 400.000000000 400.000000000 400.000000000 400.000000000 400.000000000 400.000000000 400.000000000 400.000000000 400.000000000 400.000000000 400.000000000 400.000000000 400.000000000 400.000000000 400.000000000 400.000000000 400.000000000 400.000000000 400.000000000 400.000000000 400.000000000 400.000000000 400.000000000 400.000000000 400.000000000 400.000000000 400.000000000 400.000000000 400.000000000 400.000000000 400.000000000 400.000000000 400.000000000 400.000000000 341.968202498 165.902185653 400.000000000 400.000000000 400.000000000 400.000000000 400.000000000 400.000000000 0.028189053 400.000000000 0.005064857 68.362735666 400.000000000 400.000000000 0.929297146 0.462646346 1.102140357 3.924227761 400.000000000 341.797589941 0.652777733 0.263194176 2.622193201 0.497155477 0.638090854 0.531245348 0.283206383 0.128886958 0.542556603 0.775815674 0.611819370 0.591200274 0.723389081 0.776373170 0.808783845 0.453053844 0.558498227 0.496793015 0.050704215 0.726370856 0.618337570 0.634378322 0.596557406 0.863494023 0.980378449 0.500336815 1.183380119 1.154307694 0.675368189 0.662328860 0.621446777 0.286158755 0.707439362 0.599308507 4.651354490 0.426237002 0.083916302 0.132948797 0.752510097 0.850089686 0.715745197 0.972995547 0.810945046 400.000000000 400.000000000 400.000000000 400.000000000 400.000000000 400.000000000 400.000000000 400.000000000 400.000000000 400.000000000 394.708275419 400.000000000 400.000000000 400.000000000 400.000000000 400.000000000 400.000000000 400.000000000 400.000000000 400.000000000 400.000000000 400.000000000 400.000000000 400.000000000 400.000000000 400.000000000 400.000000000 400.000000000 146.922683830 45.829560296 211.933568747 255.537976749 40.127311539 16.429170119 11.946329282 18.160196511 13.609535565 3.708922615 400.000000000 400.000000000 400.000000000 297.678895441 25.920716356 400.000000000 16.868717115 3.827871602 400.000000000 400.000000000 70.555622516 3.741245937 5.651606097 5.737784882 1.479963409 2.150405460 2.498785583 2.679634360 400.000000000 400.000000000 10.537389085 2.071258550 400.000000000 2.422558056 1.596004251 27.918633936 1.464469751 400.000000000 0.415776954 1.403018815 1.081576331 0.608990588 0.502339763 1.081391494 4.399793379 1.129234025 1.697077966 0.867566225 0.845013426 1.045333524 0.690202016 0.775280481 1.728248582 0.894185472 0.830943639 0.729929932 0.427062077 1.032777556 1.213619013 0.970825421 0.956081617 1.109986822 1.111689825 1.311776736 1.604363969 1.965152702 1.149790312 1.243527525 1.312005125 2.314467023 1.674433988 1.211046893 1.065110094 0.893164632 
    </DataArray>
    <DataArray Name="Pressure" type="Float32" Format="ascii">
    1354.736801393 839.859353230 879.165241695 988.449459884 702.506738694 563.516706831 955.369237950 1059.671193576 1261.204041625 1411.402338683 1142.391537860 831.731661008 1021.378964442 624.471191634 768.643020646 966.796281401 1003.303039589 593.232366882 853.630372581 1629.200382328 1496.136927729 1528.211808991 1755.970260942 1856.885331008 1258.932576842 778.089217652 1260.185277573 1501.712594480 1353.348686995 1085.778314955 1422.599355801 1440.325663951 1300.347621593 1119.238230385 1926.796277373 1952.274949770 1925.677731939 1975.929246531 1955.999042185 1658.146721142 1345.096153577 1314.036850320 1616.109806777 1652.428512576 1606.449466391 1361.406595231 1240.811080296 1501.859017081 1905.256386596 1920.168901498 1754.001761519 1909.216749312 1666.231114488 1487.069332986 1559.592179804 1185.270439263 1661.932263282 1470.277555788 1209.039257043 1246.915113902 1536.051920610 1550.346174304 1771.957808130 1689.879483721 1756.467213822 1830.056568878 1583.948551850 1672.228256209 1345.436341564 1298.122232249 918.492243538 1291.081231461 1578.522182661 1715.445131136 1272.131817819 1679.748029009 1710.803760755 1661.244074562 1505.799119744 1519.432110526 1226.373490825 928.674486794 1290.770807528 1108.685262934 1315.153873258 1037.518676982 668.029014768 1072.000556699 1578.426902792 1635.183951763 977.334093379 1220.001078688 1363.787905707 784.383887458 1349.802984296 241.377437480 539.564434732 1237.897833848 970.654468562 521.748923891 291.123255386 975.752264564 937.973060395 1317.118292553 966.432707008 1207.285824912 1611.436373168 1424.061801527 641.393913306 417.345912672 393.296001929 480.523479028 754.449649698 814.137549151 618.078262042 331.544962873 73.136788133 1184.525927920 1070.356402403 846.255278601 830.416465959 565.202066722 550.259242956 -3.832110969 325.918122163 19.194123241 215.664422619 45.664871741 1171.565320403 1116.979691720 363.025211785 749.698023921 721.805492118 389.589948548 133.386768404 713.325553288 66.174420913 250.141211018 148.366557928 1021.050114754 325.994853863 1464.413560452 879.240602473 81.138819197 -422.656759913 625.279954868 -54.625058081 573.351713317 539.940774162 403.617915985 289.784526274 308.370040358 254.828385363 498.672184959 361.489218837 1045.187664131 618.748952497 340.031429172 399.417222830 882.277615727 965.655684067 848.655296036 154.438771957 108.375696180 1236.356701773 722.379015118 929.645867302 1091.549527724 875.619934053 1316.579640099 1128.490685384 751.539986768 847.046421413 1014.543977113 1017.534672661 1224.011203403 491.633725285 678.762451079 429.928459422 81.086552663 121.068797619 103.818462975 117.440941221 652.957530284 200.813122847 333.162319365 1313.847279230 1094.272655970 1042.295054800 804.410022475 679.329490997 1121.067009044 390.284656973 770.705348351 928.239383959 1071.839594514 1209.205933820 102.571824688 159.357651058 214.398716111 410.422037572 541.926377952 129.869269722 377.762082324 801.874629426 971.728488824 988.519377493 354.114066859 1138.252491746 855.138223259 323.877547594 920.105234619 293.980329612 792.699980916 330.482911585 190.679498577 25.269039946 147.304351956 325.395312204 227.868403853 224.538051172 549.822914243 947.504915989 149.172055650 99.679759163 1103.391321718 567.678248677 -2.842456065 733.425416610 143.095776474 187.413765896 220.972094352 1581.147149400 1416.354741142 1338.899550066 1046.091069272 588.739158644 1245.457801461 717.649162027 877.836160160 703.230101349 933.610113213 189.472579390 286.163420209 358.649413147 661.606570698 673.649837354 471.186358894 565.521742725 394.241592725 
    </DataArray>
    <DataArray Name="Density" type="Float32" Format="ascii">
    2040.419971696 2040.496341253 2040.359797392 2040.146221415 2040.340621257 2040.542086142 2040.184901101 2040.169685645 2040.148280714 2045.243214820 2040.058016839 2040.129132225 2040.096185954 2040.381702916 2040.313270268 2040.018253600 2040.065671487 2040.007688725 2040.145872313 2060.079399359 2046.532223808 2045.552585812 2058.605777570 2060.941714074 2040.057503273 2040.079144392 2039.990877155 2040.000430103 2039.971359286 2040.033468469 2040.010659487 2039.981290059 2040.033518239 2039.925494805 2063.668010072 2063.032930602 2062.797403125 2071.693433185 2077.973668511 2039.950737191 2041.456045288 2040.043959608 2040.015326499 2040.023540777 2040.080942434 2046.669481433 2043.060478866 2039.890783976 2081.107265826 2064.128707402 2062.295976938 2105.221459710 2087.109318509 2055.804346814 2039.896753364 2040.132259338 2040.155429146 2039.976795890 2040.073403337 2039.983497397 2040.075635440 2039.927572414 2045.438018359 2050.676603044 2049.377435988 2062.247242018 2039.988884250 2039.967926570 2040.098844383 2039.542569844 2040.414746654 2040.412624841 2039.414961505 2039.320417471 2068.549992407 2072.795822853 2083.659830057 2071.686305368 2056.890264803 2099.583270302 2039.577275732 2039.867663003 2040.585100599 2040.201558816 2039.765624283 2039.472749213 2040.773743290 2040.093354960 2040.058744783 2039.813688607 2040.589325727 2040.595847173 2039.681588356 2239.905479333 2039.197450323 2300.552893775 2043.122484245 2039.890608404 2053.383034872 2082.444674829 2040.613668463 2039.090800117 2039.614923784 2210.953410432 2166.488617380 2040.150327013 2039.570930221 2039.938726720 2041.005385942 2040.597528435 2040.240780218 2040.091244069 2062.950610774 2039.753232628 2040.153660980 2041.006305332 2040.957529574 2039.033085297 2040.139227234 2039.896655287 2039.152638122 2039.903167075 2040.058877498 2040.936155984 2040.095004023 2040.572484205 2040.251827340 2040.773105539 2039.516965706 2040.141619322 2038.986636384 2039.696354649 2040.197143056 2038.992607950 2041.157834384 2040.312738980 2040.253412585 2039.668499178 2040.875932503 2040.662185387 2039.147857757 2040.369340425 2039.423491299 2042.296096350 2041.125208514 2038.096270967 2041.481589351 2039.411950604 2040.312239681 2040.075180547 2040.293435938 2040.370204173 2040.262606117 2040.090700410 2040.343120865 2039.986053572 2040.108785979 2040.041248405 2040.064052625 2040.051677035 2047.078987736 2045.771416528 2040.311056033 2040.300062270 2040.080878828 2040.243312797 2040.079736617 2039.923632906 2048.235182860 2052.864009030 2081.500344756 2058.255042852 2059.644924008 2039.756390288 2061.100473109 2040.055934144 2082.433562664 2072.167806000 2040.057064761 2040.505536715 2040.305818531 2040.914105501 2040.769454690 2133.356732047 2040.220371112 2174.875339712 2054.230096850 2057.273978255 2040.148143297 2039.935218395 2084.488763555 2039.707172887 2041.368559466 2052.569285787 2063.738722394 2041.735202875 2051.185360966 2040.810715380 2040.547561373 2098.198371952 2126.469196683 2211.135171739 2040.660739841 2040.082612927 2040.417085682 2040.208874641 2099.322134518 2228.311614033 2041.600247512 2151.217039230 2040.127038640 2098.224595920 2040.299391185 2082.447486638 2118.636838218 2208.101100089 2122.907674515 2062.151110195 2093.633994699 2040.506114677 2041.720749752 2039.426141343 2072.735161417 2040.512863343 2066.451664362 2093.637436074 2263.369901172 2072.817378308 2039.138008872 2040.627289287 2040.478087821 2040.500832768 2040.615000894 2040.441656168 2040.725199414 2041.216576066 2039.919066390 2040.829691833 2039.927133230 2040.238861223 2040.350316285 2039.943205551 2040.282408316 2039.975053315 2040.216274291 2040.516960760 2040.433879325 2040.598980035 2040.348284956 2040.587637491 
    </DataArray>
    <DataArray Name="Velocity" type="Float32"  NumberOfComponents="3" Format="ascii">