<?xml version="1.0"?>
<VTKFile type="PolyData" version="0.1" byte_order="LittleEndian">
 <PolyData>
  <Piece Name ="SoilBlock" NumberOfPoints="250" NumberOfVerts="250">
   <Points>
    <DataArray Name="Position" type="Float32"  NumberOfComponents="3" Format="ascii">
    1.71124 0.511555 0 1.69008 0.509464 0 1.74936 0.508872 0 1.73146 0.510188 0 1.74716 0.535966 0 1.72493 0.529471 0 1.79536 0.5083 0 1.77388 0.507736 0 1.8367 0.509088 0 1.81634 0.508726 0 1.79045 0.553062 0 1.80019 0.528835 0 1.76149 0.526172 0 1.78217 0.529703 0 1.77046 0.549109 0 1.82072 0.528854 0 1.83031 0.550432 0 1.81068 0.548233 0 1.8402 0.530239 0 1.85677 0.508829 0 1.87713 0.509268 0 1.89707 0.509069 0 1.93655 0.509339 0 1.91686 0.509567 0 1.89332 0.549564 0 1.85997 0.528896 0 1.85215 0.549494 0 1.87169 0.54943 0 1.88002 0.529928 0 1.93308 0.549687 0 1.91248 0.549155 0 1.90002 0.529275 0 1.94123 0.529426 0 1.92081 0.529623 0 1.97588 0.509568 0 1.95638 0.509504 0 1.99554 0.509486 0 2.03402 0.50991 0 2.01495 0.509814 0 1.97336 0.549025 0 1.95188 0.549358 0 1.96174 0.529604 0 1.98246 0.529802 0 2.03145 0.552208 0 2.02443 0.53045 0 2.00276 0.529354 0 2.01346 0.548038 0 1.99241 0.550003 0 2.07088 0.512484 0 2.05361 0.508934 0 2.08974 0.507173 0 2.12675 0.507824 0 2.10956 0.51288 0 2.06875 0.531378 0 2.06981 0.555861 0 2.04441 0.529039 0 2.05304 0.544599 0 2.09438 0.563247 0 2.0915 0.527558 0 2.11042 0.533469 0 2.12772 0.545566 0 2.11143 0.554574 0 2.08676 0.545497 0 2.14759 0.510749 0 2.16679 0.508569 0 2.18741 0.510486 0 2.20496 0.509177 0 2.17189 0.545919 0 2.15197 0.533851 0 2.13429 0.527369 0 2.15153 0.553785 0 2.17222 0.527119 0 2.13617 0.563583 0 2.21268 0.54598 0 2.19384 0.531748 0 2.19209 0.551229 0 2.21515 0.527911 0 2.22547 0.510082 0 2.2625 0.509833 0 2.24376 0.509505 0 2.30049 0.509635 0 2.28125 0.509947 0 2.23194 0.55184 0 2.25061 0.55076 0 2.23745 0.530513 0 2.2589 0.529622 0 2.29182 0.548499 0 2.26895 0.551209 0 2.27959 0.531898 0 2.30054 0.561455 0 2.30082 0.529568 0 2.34579 0.510085 0 2.32254 0.509155 0 2.36814 0.507805 0 2.39807 0.506874 0 2.33779 0.526903 0 2.34537 0.551485 0 2.32008 0.551667 0 2.3197 0.533329 0 2.35379 0.53748 0 2.37461 0.543702 0 2.39568 0.53933 0 2.39511 0.521601 0 2.3718 0.525169 0 2.3774 0.56038 0 2.39483 0.557666 0 2.42348 0.50521 0 2.48418 0.512644 0 2.4538 0.507765 0 2.41688 0.533576 0 2.44276 0.528158 0 2.41115 0.556965 0 2.42719 0.551001 0 2.44024 0.551854 0 2.42844 0.519405 0 2.45579 0.543701 0 2.47236 0.548995 0 2.46731 0.521926 0 2.48695 0.53898 0 2.50657 0.51074 0 2.53348 0.509581 0 2.56082 0.510308 0 2.58405 0.510516 0 2.51751 0.548124 0 2.50323 0.535776 0 2.52361 0.52613 0 2.53775 0.545089 0 2.55028 0.524977 0 2.55713 0.541789 0 2.57658 0.545515 0 2.58102 0.529103 0 2.60641 0.510192 0 2.62846 0.510002 0 2.67393 0.509572 0 2.65112 0.510057 0 2.59912 0.540045 0 2.62465 0.54354 0 2.61019 0.530024 0 2.67991 0.527875 0 2.65397 0.531571 0 2.63602 0.531533 0 2.6657 0.542061 0 2.72113 0.50985 0 2.69815 0.509549 0 2.76562 0.507547 0 2.74226 0.509655 0 2.6927 0.538983 0 2.7245 0.537022 0 2.70828 0.529925 0 2.75815 0.530279 0 2.74096 0.532649 0 1.8444 0.56779 0 1.85018 0.589022 0 1.82815 0.574555 0 1.80758 0.56796 0 1.88906 0.586703 0 1.87048 0.594464 0 1.88328 0.566827 0 1.86478 0.572347 0 1.88868 0.607643 0 1.90906 0.592242 0 1.90406 0.571794 0 1.92293 0.567754 0 1.9303 0.58587 0 1.92583 0.605669 0 1.92988 0.627233 0 1.9094 0.61465 0 1.96426 0.566533 0 1.96874 0.584418 0 1.94475 0.571406 0 1.9858 0.57248 0 1.94939 0.592749 0 1.96867 0.603483 0 1.99002 0.593067 0 2.02842 0.595021 0 2.01175 0.583934 0 2.00387 0.56647 0 2.02732 0.572468 0 2.00494 0.603522 0 1.94601 0.61245 0 1.95247 0.634473 0 1.98146 0.633909 0 1.96254 0.623566 0 1.98362 0.614679 0 2.00145 0.623601 0 2.01664 0.621261 0 2.02677 0.616324 0 2.05102 0.582264 0 2.07 0.573765 0 2.06685 0.59893 0 2.0449 0.600234 0 2.04681 0.565024 0 2.12445 0.599823 0 2.12441 0.579915 0 2.10805 0.57625 0 2.0966 0.595519 0 2.0844 0.5843 0 2.11243 0.60801 0 2.0465 0.620453 0 2.06494 0.615735 0 2.08305 0.614573 0 2.09693 0.612611 0 2.1605 0.579542 0 2.14598 0.581736 0 2.14432 0.604415 0 2.16516 0.600256 0 2.1729 0.564988 0 2.2038 0.567843 0 2.19126 0.594265 0 2.17873 0.594633 0 2.21042 0.59532 0 2.18727 0.577456 0 2.25779 0.586119 0 2.22041 0.569874 0 2.24095 0.587426 0 2.22439 0.587616 0 2.24222 0.570412 0 2.31007 0.576373 0 2.26869 0.580871 0 2.29393 0.58 0 2.27462 0.568672 0 2.3257 0.569169 0 2.34094 0.567807 0 2.36309 0.566581 0 2.80414 0.510479 0 2.78469 0.517792 0 2.85301 0.510436 0 2.82817 0.510029 0 2.77371 0.537754 0 2.80047 0.537457 0 2.83751 0.531378 0 2.81806 0.532501 0 2.85851 0.533337 0 2.90211 0.51065 0 2.87731 0.510896 0 2.95583 0.508195 0 2.92784 0.509874 0 2.90686 0.532491 0 2.88191 0.532628 0 2.93281 0.530415 0 2.99006 0.506361 0 3.028 0.512987 0 2.95761 0.529623 0 2.97917 0.522714 0 3.00789 0.523132 0 3.05203 0.517155 0 3.07411 0.510198 0 3.09818 0.516944 0 3.12024 0.506549 0 3.14983 0.508465 0 
    </DataArray>
   </Points>
   <PointData  Vectors="vector">
    <DataArray Name="SortedParticle_ID" type="Int32" Format="ascii">
    0 1 2 3 4 5 6 7 8 9 10 11 12 13 14 15 16 17 18 19 20 21 22 23 24 25 26 27 28 29 30 31 32 33 34 35 36 37 38 39 40 41 42 43 44 45 46 47 48 49 50 51 52 53 54 55 56 57 58 59 60 61 62 63 64 65 66 67 68 69 70 71 72 73 74 75 76 77 78 79 80 81 82 83 84 85 86 87 88 89 90 91 92 93 94 95 96 97 98 99 100 101 102 103 104 105 106 107 108 109 110 111 112 113 114 115 116 117 118 119 120 121 122 123 124 125 126 127 128 129 130 131 132 133 134 135 136 137 138 139 140 141 142 143 144 145 146 147 148 149 150 151 152 153 154 155 156 157 158 159 160 161 162 163 164 165 166 167 168 169 170 171 172 173 174 175 176 177 178 179 180 181 182 183 184 185 186 187 188 189 190 191 192 193 194 195 196 197 198 199 200 201 202 203 204 205 206 207 208 209 210 211 212 213 214 215 216 217 218 219 220 221 222 223 224 225 226 227 228 229 230 231 232 233 234 235 236 237 238 239 240 241 242 243 244 245 246 247 248 249 
    </DataArray>
    <DataArray Name="OriginalID" type="Int32" Format="ascii">
    1 0 4 2 5 3 9 6 16 12 11 13 7 10 8 17 18 14 21 20 25 30 42 36 32 26 22 27 31 44 38 37 50 43 56 49 64 81 72 58 51 57 65 83 82 73 74 66 100 90 110 130 120 101 102 91 92 113 111 121 132 122 112 140 150 160 169 152 141 131 142 151 133 171 161 162 170 178 194 186 208 201 180 188 179 187 203 196 195 182 202 220 214 225 230 215 217 216 209 221 227 235 238 226 107 155 234 127 242 232 236 108 126 210 241 231 117 197 136 128 191 156 138 109 174 190 118 166 146 119 137 183 157 184 167 211 129 222 205 175 165 139 223 212 244 239 147 149 148 228 198 23 24 19 15 34 29 33 28 35 40 39 45 46 47 48 41 59 60 52 67 53 61 68 85 76 75 84 77 54 55 63 62 69 70 78 86 94 103 104 95 93 124 134 123 115 114 105 71 79 87 96 154 143 80 88 153 172 135 97 89 163 125 181 116 144 189 106 164 98 204 145 173 99 176 159 218 199 158 168 206 192 177 213 200 240 233 193 185 207 246 237 219 224 229 243 245 247 248 249 
    </DataArray>
    <DataArray Name="ErodedLabel" type="Int32" Format="ascii">
    0 0 1 0 0 0 0 0 0 0 0 0 0 0 0 0 0 0 0 0 0 0 0 0 0 0 0 0 0 0 0 0 0 0 0 0 0 0 0 0 0 0 0 0 0 0 0 0 0 0 0 0 0 0 0 0 0 0 0 0 0 0 0 0 0 0 0 0 0 0 0 0 0 0 0 0 0 0 0 0 0 0 0 0 0 0 1 1 0 1 0 0 0 0 0 0 1 1 0 1 1 1 0 0 1 1 0 1 1 1 1 1 1 1 0 1 1 1 1 1 1 1 1 1 1 1 1 1 1 1 1 1 1 1 0 1 1 1 1 1 1 1 0 1 1 1 1 1 1 1 1 0 0 0 0 0 0 0 0 0 0 0 0 0 0 0 0 0 0 0 0 0 0 0 1 0 0 0 1 0 1 1 1 1 1 1 1 0 0 1 1 0 1 1 0 1 1 1 1 1 1 1 1 1 1 1 0 1 1 1 1 1 1 1 1 1 1 1 1 1 1 1 1 1 1 1 1 1 1 1 0 0 1 0 1 1 1 0 1 0 1 1 1 1 1 1 1 1 1 1 
    </DataArray>
    <DataArray Name="Indicator" type="Int32" Format="ascii">
    1 1 0 1 1 1 0 0 0 0 1 0 1 1 1 0 0 1 0 0 0 0 0 0 0 0 0 0 0 0 0 0 0 0 0 0 0 0 0 0 0 0 0 0 0 0 0 0 0 0 0 0 0 0 0 0 0 0 0 0 0 0 0 0 0 0 0 0 0 0 0 0 0 0 0 0 0 0 0 0 0 0 0 0 0 0 0 0 0 1 0 0 0 0 0 0 1 1 0 0 1 1 0 0 1 1 0 0 0 1 0 1 1 1 0 1 1 0 1 0 0 0 0 1 1 1 1 1 1 1 1 0 1 0 1 1 1 1 1 1 1 1 0 1 0 0 1 1 1 1 1 1 1 1 1 1 1 0 1 1 1 0 0 0 1 1 1 0 0 0 0 0 0 0 0 0 0 0 1 1 1 1 1 1 1 1 1 0 0 1 1 0 1 0 0 1 0 1 1 1 1 1 1 1 1 1 0 0 1 1 1 1 1 1 1 1 1 1 1 1 1 1 1 1 0 1 0 0 1 1 1 1 1 1 1 1 1 1 1 1 1 1 1 1 1 1 1 1 1 1 
    </DataArray>
    <DataArray Name="VerticalStress" type="Float32" Format="ascii">
    -582.286037026 -1104.258279079 -960.254278003 -613.109052196 -455.783492030 -478.892707203 -1217.272814118 -1067.244813322 -1906.401883586 -1615.609510214 -707.560761396 -1336.792198737 -844.003803772 -1149.768581699 -555.959769149 -1339.079217573 -751.910228279 -944.656282659 -1341.788497125 -2001.877096513 -2036.766771423 -2236.972244846 -2659.017747097 -2500.398436771 -1753.449157163 -1673.019231940 -1056.377947256 -1588.888989288 -1952.059269057 -1551.172146605 -1566.622384997 -1940.263965946 -1997.175493045 -1857.465012660 -2720.837285760 -2704.887142955 -2682.200152933 -2411.858567159 -2520.781337807 -1757.663261575 -1752.859686493 -2173.740940347 -2209.211126120 -1752.696409928 -2171.224446415 -2139.071933876 -1784.562365834 -1645.247539056 -2308.184703852 -2381.856801103 -2508.829541866 -2290.431129659 -2308.450514426 -1897.480389106 -1420.790943832 -2136.907183931 -1838.939111558 -1053.555654046 -1911.807452682 -1975.447128655 -1711.606110276 -1546.761714175 -1725.130221997 -2435.348210617 -2492.561030717 -2116.710672164 -1992.161870159 -1359.191052456 -1945.572427246 -1992.580481788 -1057.773084647 -1962.784651669 -1241.086706828 -1380.904934741 -1717.488992349 -1309.964391488 -1534.398909461 -1990.478312873 -2154.687733083 -2012.529534355 -1715.748078665 -1804.637494921 -1033.588330586 -1258.138735375 -1434.041209409 -1615.021539081 -1187.975047268 -954.594014352 -1613.511716143 -618.616266643 -1328.926590612 -1963.035905840 -1902.335186269 -1804.559124113 -1823.410418479 -1385.584641900 -708.235696147 -653.857573937 -1478.880955879 -694.766511878 -473.874429869 -713.435865468 -1125.263556388 -1090.511364630 -262.964583808 -131.084484898 -1634.130301538 -1506.089452793 -1347.421282478 -704.711217670 -809.758689341 -194.954951037 -178.230067434 -142.542091503 -1049.169491565 -360.483068794 -318.144438319 -774.204312549 -435.597834096 -1294.403894918 -1361.137646412 -1323.326295521 -1217.074576650 -190.651384019 -547.208515304 -691.893894429 -307.700299593 -573.664554755 -293.632939047 -269.902827560 -512.655088883 -1158.990565866 -1074.541525093 -1104.918005265 -1110.089647816 -158.828822508 -189.563607355 -466.857875791 -457.440212104 -337.972247315 -453.142049381 -205.829592942 -960.460728506 -1072.964410936 -945.083405930 -932.320311793 -155.131411472 -251.321044481 -451.330208196 -355.889812575 -343.326218532 -425.086718816 -168.943260546 -205.564568501 -416.973882596 -470.003566836 -244.854159228 -1214.641825122 -623.518887068 -113.350060245 -504.327252612 -1223.340024029 -1375.303160831 -1167.204960826 -355.758020680 1.223817773 -23.564001143 -1652.483091586 -1352.414903871 -1668.743949203 -1302.374993394 -1256.722096146 -944.860519220 -1007.453343979 -994.162562853 -1041.343273686 -1295.566622887 -1260.231626614 -691.178639286 -544.584820362 -56.566701512 -251.334929065 -214.361161205 -336.382696644 -184.632414789 -180.429688601 -178.480951967 -902.714767380 -1032.384184373 -789.085067316 -675.920958566 -1429.163863771 -293.488832606 -853.704718550 -1183.667507914 -724.124492889 -1041.590854995 -132.966446484 -134.991924862 -86.635991610 -115.381273652 -74.752668068 -395.664001505 -474.078580778 -341.024267814 -286.547759841 -1288.131237679 -835.520944494 -26.098951542 -97.723607579 -224.643076623 -894.266879311 -213.318860815 -650.388575678 -152.752976746 -143.514885690 -614.773013913 -91.024250627 -112.995251438 -41.141963026 -711.387342697 -185.761600531 -152.996179278 -190.122185839 -1055.976402514 -1056.247012010 -923.806158630 -961.062631538 -124.220568837 -170.440411492 -283.985760090 -276.806191093 -314.031663670 -886.172509347 -917.370161744 -816.629487778 -855.446896547 -354.146752100 -307.601031252 -396.754702147 -726.839253474 -789.313592560 -389.321606820 -433.025727649 -537.307610481 -581.487072530 -574.403792307 -544.568414120 -417.487370643 -388.262059621 
    </DataArray>
    <DataArray Name="FrictionAngle" type="Float32" Format="ascii">
    0.523598776 0.523598776 0.009689363 0.523598776 0.523598776 0.523598776 0.523598776 0.523598776 0.523598776 0.523598776 0.523598776 0.523598776 0.523598776 0.523598776 0.523598776 0.523598776 0.299403364 0.523598776 0.523598776 0.523598776 0.523598776 0.523598776 0.523598776 0.523598776 0.523598776 0.523598776 0.523598776 0.523598776 0.523598776 0.523598776 0.523598776 0.523598776 0.523598776 0.523598776 0.523598776 0.523598776 0.523598776 0.523598776 0.523598776 0.523598776 0.523598776 0.523598776 0.523598776 0.523598776 0.523598776 0.523598776 0.523598776 0.523598776 0.523598776 0.523598776 0.523598776 0.523598776 0.523598776 0.523598776 0.523598776 0.523598776 0.523598776 0.523598776 0.523598776 0.523598776 0.523598776 0.523598776 0.523598776 0.523598776 0.523598776 0.523598776 0.523598776 0.523598776 0.523598776 0.523598776 0.523598776 0.523598776 0.523598776 0.523598776 0.523598776 0.523598776 0.523598776 0.523598776 0.523598776 0.523598776 0.523598776 0.523598776 0.523598776 0.523598776 0.523598776 0.523598776 0.138550634 0.087582500 0.523598776 0.000702184 0.523598776 0.523598776 0.523598776 0.523598776 0.523598776 0.523598776 0.000007295 0.004478833 0.523598776 0.003817764 0.000039744 0.000684878 0.389579012 0.523598776 0.000972500 0.000805715 0.523598776 0.000858769 0.003784792 0.000531143 0.000015734 0.000804039 0.000769997 0.001343479 0.458307299 0.001037745 0.000936603 0.000678638 0.000894034 0.000932893 0.000379888 0.001108897 0.001040845 0.000866009 0.000583627 0.000947633 0.000383399 0.000673578 0.000796670 0.000758179 0.000681553 0.001165751 0.000646087 0.001405745 0.001236218 0.000072964 0.000810464 0.000778470 0.000879357 0.000886648 0.000985310 0.000876457 0.001593321 0.001695328 0.005970727 0.000685642 0.000947360 0.000859450 0.000970180 0.001016310 0.000412150 0.523598776 0.523598776 0.523598776 0.523598776 0.523598776 0.523598776 0.523598776 0.523598776 0.523598776 0.446908917 0.523598776 0.523598776 0.523598776 0.523598776 0.460117692 0.523598776 0.523598776 0.523598776 0.523598776 0.523598776 0.523598776 0.237817671 0.523598776 0.081117701 0.523598776 0.523598776 0.523598776 0.053308124 0.141707896 0.111529829 0.015351787 0.053394878 0.010894443 0.012821641 0.004704479 0.009428249 0.523598776 0.523598776 0.009623018 0.006509942 0.523598776 0.003450841 0.011336280 0.322263304 0.003162769 0.162146562 0.001677353 0.008134219 0.005424051 0.004102790 0.003846405 0.004939743 0.006145893 0.003088752 0.002030985 0.523598776 0.026225101 0.001962387 0.001865284 0.001986216 0.004084997 0.000680921 0.000139662 0.001060758 0.001912773 0.002089909 0.001179876 0.001195394 0.001202770 0.000954937 0.000490120 0.000570323 0.000955810 0.000197200 0.001009268 0.000119739 0.000190115 0.001213927 0.001076438 0.001342133 0.001140286 0.001318408 0.001403964 0.000588575 0.001709130 0.001602630 0.001483433 0.001321760 0.001457717 0.002150528 0.002546830 0.001481879 0.001677906 0.001760392 0.002996326 0.002002944 0.001300039 0.001492986 0.001076026 
    </DataArray>
    <DataArray Name="Cohesion" type="Float32" Format="ascii">
    400.000000000 400.000000000 6.713197749 400.000000000 400.000000000 400.000000000 400.000000000 400.000000000 400.000000000 400.000000000 400.000000000 400.000000000 400.000000000 400.000000000 400.000000000 400.000000000 213.861608525 400.000000000 400.000000000 400.000000000 400.000000000 400.000000000 400.000000000 400.000000000 400.000000000 400.000000000 400.000000000 400.000000000 400.000000000 400.000000000 400.000000000 400.000000000 400.000000000 400.000000000 400.000000000 400.000000000 400.000000000 400.000000000 400.000000000 400.000000000 400.000000000 400.000000000 400.000000000 400.000000000 400.000000000 400.000000000 400.000000000 400.000000000 400.000000000 400.000000000 400.000000000 400.000000000 400.000000000 400.000000000 400.000000000 400.000000000 400.000000000 400.000000000 400.000000000 400.000000000 400.000000000 400.000000000 400.000000000 400.000000000 400.000000000 400.000000000 400.000000000 400.000000000 400.000000000 400.000000000 400.000000000 400.000000000 400.000000000 400.000000000 400.000000000 400.000000000 400.000000000 400.000000000 400.000000000 400.000000000 400.000000000 400.000000000 400.000000000 400.000000000 400.000000000 400.000000000 96.609669822 60.834563648 400.000000000 0.486487334 400.000000000 400.000000000 400.000000000 400.000000000 400.000000000 400.000000000 0.005054244 3.103047136 400.000000000 2.645037255 0.027535200 0.474497798 284.446307020 400.000000000 0.673767900 0.558216036 400.000000000 0.594972978 2.622193201 0.367986702 0.010900944 0.557054771 0.533469719 0.930790097 341.797589941 0.718970911 0.648897975 0.470174545 0.619404927 0.646327707 0.263194176 0.768266717 0.721118588 0.599988723 0.404348477 0.656539731 0.265626664 0.466668749 0.551949313 0.525282052 0.472193962 0.807656027 0.447622430 0.973929366 0.856477665 0.050550727 0.561506126 0.539340101 0.609236340 0.614288213 0.682643043 0.607227602 1.103885883 1.174558767 4.136690459 0.475026600 0.656350245 0.595444234 0.672160566 0.704120506 0.285545997 400.000000000 400.000000000 400.000000000 400.000000000 400.000000000 400.000000000 400.000000000 400.000000000 400.000000000 332.033013531 400.000000000 400.000000000 400.000000000 400.000000000 343.358536607 400.000000000 400.000000000 400.000000000 400.000000000 400.000000000 400.000000000 167.943049853 400.000000000 56.323584058 400.000000000 400.000000000 400.000000000 36.967976180 98.840607948 77.592119849 10.636865646 37.028252757 7.548189910 8.883580240 3.259382899 6.532276181 400.000000000 400.000000000 6.667227941 4.510283489 400.000000000 2.390822130 7.854341436 231.334890188 2.191237959 113.333413959 1.162105325 5.635676634 3.757929695 2.842512198 2.664881008 3.422382052 4.258053010 2.139956664 1.407109317 400.000000000 18.173449323 1.359583645 1.292307938 1.376092917 2.830184677 0.471756082 0.096760434 0.734915218 1.325209941 1.447933643 0.817442674 0.828193687 0.833303995 0.661600213 0.339565199 0.395131167 0.662204633 0.136624483 0.699241730 0.082957951 0.131715722 0.841033623 0.745778152 0.929857921 0.790013826 0.913420681 0.972695290 0.407776928 1.184121220 1.110335861 1.027753576 0.915743039 1.009936876 1.489932114 1.764499707 1.026676574 1.162488614 1.219636718 2.075921881 1.387682364 0.900693874 1.034372030 0.745493062 
    </DataArray>
    <DataArray Name="Pressure" type="Float32" Format="ascii">
    1025.181265962 850.042494961 1054.704683424 928.253230792 501.617349358 598.932952297 1362.491914439 1317.656186782 1378.889451765 1365.889356340 354.880042955 700.922702983 730.257870197 643.986128392 427.739565289 985.276385886 930.081584686 536.778722856 1224.227770119 1528.694131645 1631.146716064 1692.254584814 1732.612547605 1710.588237424 796.492981967 1170.582484787 986.883706400 720.969636461 1077.758978954 1379.022555291 1249.317099594 1345.355091362 1648.664980647 1629.362936396 1788.596730534 1763.391705428 1830.713705704 1856.615012867 1854.258085441 1336.506012131 1262.254548532 1524.620947911 1592.382822554 996.463146247 1463.108639319 1616.038510723 1363.676393668 1473.000089610 1731.947360253 1819.335444160 1811.647646711 1732.940399647 1697.186613605 1539.459520987 1316.924181895 1383.789328238 1187.216594359 1088.904235898 1561.233509263 1345.778342951 1250.949950328 1141.990662664 1466.529133629 1870.034381620 1972.223633690 1665.856023969 1702.348748868 1290.811415720 1654.409273194 1496.674819816 1115.650373047 1602.315494690 877.867073932 902.939389668 1058.185945255 850.850771264 949.981943050 1687.733935848 1531.421541515 1524.399634120 1324.491300636 1321.293498450 937.114792650 1111.899607978 1255.334926900 1429.313592463 886.688326837 853.267457740 1042.143387775 603.556537432 887.448418172 1230.224147017 1465.505905480 1027.864120482 1192.864964079 1085.786610901 743.754851117 635.855238529 1061.579249384 779.971231296 534.671058697 783.089930122 900.469409718 1075.333965989 241.805901926 111.079456659 1349.981906505 1507.755869515 1335.875572797 760.973358564 824.533970246 184.820980104 183.655458175 142.529576536 735.687684634 350.920092513 311.236477039 774.158279331 435.798150091 1292.906660845 1360.032043063 1321.895275545 1218.470264993 191.334836281 547.597088379 692.661277954 309.028787165 571.874280397 292.574418351 270.288333898 512.746731124 1157.310204634 1074.407948255 1106.079979995 1109.110657215 159.302121433 189.216817790 466.866401468 457.239209710 338.833772154 452.866476923 207.327141331 961.355895911 1075.095589765 953.511725385 931.256010483 155.042580044 251.962933615 451.120460968 355.085670961 343.379099480 852.992849476 571.559586395 607.530353799 395.426754049 672.154979943 486.541096954 570.755394712 712.400971551 514.116955091 816.893695393 764.831657384 939.423854304 643.485983763 677.741883547 357.044583043 542.638104960 895.224878458 651.152333985 742.726487292 1160.131059645 465.397007315 598.454941321 878.922132145 908.642973444 1016.577049793 1253.597319616 908.376314148 672.529385918 632.837846487 175.831681293 262.885620503 261.665581535 343.574838642 155.115571586 162.910234840 166.752806791 822.940024761 1071.204940088 750.205041733 628.822291861 961.939814863 285.301027540 759.659295726 883.201614715 688.654732797 1004.424154541 124.362160686 108.240490717 41.891803379 93.411516199 56.402334086 423.124363115 449.871701319 322.300955547 277.991295472 974.771550242 779.876407327 59.063203240 122.433338157 241.734005309 915.741191351 208.625528239 687.869023884 161.852650044 178.685372092 668.533888616 120.784501360 114.008865513 47.241815538 691.638684601 215.448790639 168.976389774 180.337835010 1056.018247898 1055.377771834 924.082861970 960.620347181 124.437744574 171.417058099 283.826185306 276.386169732 313.659001843 886.196841712 917.469994906 818.418314706 852.176631358 354.070745093 307.213274735 397.624500507 730.147697027 788.789005076 388.167604622 431.697811295 537.216444004 581.724295348 573.463428976 544.621704318 416.430121759 387.981860978 
    </DataArray>
    <DataArray Name="Density" type="Float32" Format="ascii">
    2040.389967770 2040.377299902 2040.122384536 2040.374057951 2040.514983240 2040.319274866 2040.220567959 2040.154973394 2048.839148614 2046.724019185 2040.324956955 2040.048138656 2040.149572757 2040.071744387 2040.340758747 2040.062965021 2040.026838286 2040.105094266 2040.029270769 2058.192856639 2049.868410946 2065.856789568 2068.084193684 2064.911070854 2040.007205824 2040.047402183 2040.032124761 2039.974278358 2040.009124885 2039.982548622 2039.970590557 2040.010232978 2039.962137273 2040.012945626 2067.070283448 2068.576230364 2075.523532073 2084.256163813 2067.921668324 2039.950291038 2040.530710016 2040.045089268 2039.989490902 2040.195279215 2039.973237420 2040.083303123 2049.402675284 2049.339844545 2074.375314135 2094.917975073 2098.751199485 2086.628765695 2040.165726164 2040.030796960 2039.953897713 2040.107302506 2040.031674454 2040.390327689 2040.117106244 2040.094541262 2042.122720119 2039.963750551 2039.819022695 2040.067570746 2071.675307138 2079.446025691 2098.999054603 2045.737226673 2039.640301689 2040.051687262 2040.230662934 2039.927584282 2040.079395280 2039.795526810 2040.313053656 2040.281769212 2040.837515551 2082.361144723 2087.594572727 2102.729696618 2040.387221960 2040.419760404 2040.108511644 2039.640858919 2040.263566038 2039.566574301 2039.355530478 2040.139029326 2040.001144985 2202.270297814 2040.291781433 2040.173357076 2039.957036187 2040.350892341 2039.961380741 2039.986976535 2075.477525940 2045.521601607 2039.609073464 2040.167384367 2149.699522276 2135.630682646 2040.457616385 2039.626108924 2040.374209684 2040.885146369 2133.156852707 2039.212796071 2039.754565893 2039.505069217 2039.478386442 2040.488434516 2055.006100601 2040.765111940 2094.491796303 2040.354052850 2040.357753264 2040.519172369 2040.533384649 2039.922441268 2039.565230684 2039.502056284 2039.711360923 2040.671254401 2040.249667780 2040.208112103 2040.345311980 2040.670725706 2040.495688065 2040.318562269 2040.381040721 2039.703806248 2039.873024934 2039.723302039 2039.695475840 2040.863965033 2040.550926345 2040.314501037 2040.330428513 2040.680476744 2040.278483478 2040.498011773 2039.954166032 2039.708720619 2040.138296307 2039.940295113 2040.775585395 2040.572377504 2040.235072972 2040.491266500 2040.418239876 2040.122160720 2040.290275635 2040.359055956 2040.327264780 2040.144524906 2040.321584178 2040.032379095 2040.076184185 2040.268519929 2039.956346977 2040.015889199 2043.572256095 2045.545783768 2040.095858857 2040.421065396 2040.327375338 2067.265331176 2079.518912940 2039.919808457 2039.987870097 2040.024359939 2089.874682253 2039.749248351 2085.374382137 2046.471964967 2047.849038095 2040.175385545 2154.175872017 2039.503599666 2040.525590262 2040.059184642 2086.999384463 2112.990686415 2040.600208497 2109.668020664 2154.853637504 2049.151469700 2040.103669199 2067.260780279 2128.669830503 2065.255416211 2040.521530220 2039.581868871 2057.930347432 2239.917855502 2050.028566438 2040.748662166 2040.661056809 2040.931928862 2040.762846892 2086.718497794 2152.870486384 2080.825173936 2040.118308794 2040.138858380 2045.095877046 2061.053006303 2097.282939110 2242.600695420 2040.273046183 2224.355371198 2040.401309930 2166.400816399 2040.644737814 2064.540037036 2163.841194833 2040.715057867 2101.228035296 2040.979629142 2135.580729596 2048.185822087 2040.735890636 2040.548570183 2039.861712978 2039.225072083 2039.956966955 2039.888559240 2040.852787440 2040.737360618 2040.601543691 2040.572538966 2040.457102506 2040.066041670 2039.986490102 2040.128917272 2040.135096366 2040.425020218 2040.527318448 2040.364979989 2040.312930590 2040.233733808 2040.342488908 2040.468473778 2040.335969462 2040.422729747 2040.511892384 2040.303217548 2040.647863298 2040.577336997 
    </DataArray>
    <DataArray Name="Velocity" type="Float32"  NumberOfComponents="3" Format="ascii">