<?xml version="1.0"?>
<VTKFile type="PolyData" version="0.1" byte_order="LittleEndian">
 <PolyData>
  <Piece Name ="SoilBlock" NumberOfPoints="250" NumberOfVerts="250">
   <Points>
    <DataArray Name="Position" type="Float32"  NumberOfComponents="3" Format="ascii">
    1.68999 0.509736 0 1.71103 0.511189 0 1.73094 0.509507 0 1.74976 0.508892 0 1.72685 0.52934 0 1.74854 0.534329 0 1.77316 0.508148 0 1.79374 0.508662 0 1.8151 0.508919 0 1.83512 0.509134 0 1.79095 0.552698 0 1.80271 0.528124 0 1.76393 0.527318 0 1.78453 0.530859 0 1.77062 0.549417 0 1.83078 0.550685 0 1.811 0.548413 0 1.84228 0.529486 0 1.82305 0.530083 0 1.87604 0.509253 0 1.89625 0.509137 0 1.85576 0.508934 0 1.91623 0.50956 0 1.93604 0.509349 0 1.89374 0.549403 0 1.86188 0.529595 0 1.85239 0.549413 0 1.87207 0.550013 0 1.88151 0.529755 0 1.93352 0.549376 0 1.91265 0.549913 0 1.90151 0.529355 0 1.94215 0.529599 0 1.92176 0.529757 0 1.95596 0.509602 0 1.97563 0.509493 0 2.03341 0.510594 0 2.01473 0.509429 0 1.99517 0.509972 0 1.95244 0.550071 0 1.96229 0.529561 0 1.98307 0.530009 0 1.97361 0.548669 0 2.03127 0.553198 0 2.0254 0.531097 0 2.00345 0.529101 0 2.01281 0.546851 0 1.99217 0.551136 0 2.05373 0.508408 0 2.07181 0.511912 0 2.12785 0.507338 0 2.10966 0.51317 0 2.09184 0.507349 0 2.0721 0.553033 0 2.0455 0.528077 0 2.05118 0.54593 0 2.0672 0.532744 0 2.08709 0.527893 0 2.11014 0.53192 0 2.11005 0.55376 0 2.09276 0.545779 0 2.165 0.508088 0 2.1466 0.512471 0 2.20515 0.508704 0 2.18538 0.510229 0 2.14714 0.554029 0 2.16485 0.54712 0 2.12983 0.545606 0 2.1559 0.53063 0 2.13266 0.528707 0 2.20811 0.54807 0 2.1872 0.551816 0 2.19548 0.531579 0 2.17666 0.529116 0 2.21536 0.52809 0 2.22599 0.510017 0 2.24517 0.508822 0 2.30466 0.510489 0 2.28593 0.508903 0 2.26641 0.50984 0 2.23455 0.53201 0 2.25483 0.526972 0 2.22983 0.551255 0 2.25057 0.547766 0 2.3003 0.558944 0 2.27363 0.533285 0 2.29187 0.528185 0 2.2992 0.542617 0 2.27265 0.552271 0 2.3222 0.509924 0 2.3418 0.510325 0 2.36318 0.507815 0 2.39352 0.50794 0 2.32165 0.528869 0 2.34074 0.550524 0 2.3472 0.527774 0 2.3245 0.544207 0 2.39984 0.554427 0 2.37689 0.518838 0 2.39861 0.538875 0 2.37437 0.557366 0 2.37827 0.535154 0 2.35925 0.541107 0 2.41955 0.506847 0 2.43705 0.509815 0 2.45773 0.509475 0 2.48428 0.511855 0 2.40741 0.52244 0 2.42142 0.532647 0 2.42018 0.555604 0 2.44533 0.549196 0 2.43049 0.549809 0 2.44296 0.528357 0 2.45914 0.541427 0 2.47627 0.549104 0 2.49192 0.538849 0 2.47185 0.526505 0 2.50798 0.510748 0 2.53367 0.511071 0 2.55533 0.512342 0 2.57397 0.511163 0 2.53978 0.540632 0 2.51678 0.546106 0 2.52533 0.529663 0 2.5033 0.533071 0 2.55334 0.536499 0 2.5709 0.540632 0 2.58452 0.534834 0 2.59544 0.510882 0 2.61753 0.511101 0 2.66107 0.50772 0 2.63777 0.510432 0 2.63268 0.533702 0 2.60253 0.532045 0 2.61429 0.541116 0 2.66157 0.526825 0 2.67903 0.53478 0 2.65081 0.538955 0 2.71023 0.51119 0 2.68663 0.511236 0 2.73372 0.512098 0 2.75746 0.511916 0 2.71378 0.535143 0 2.6941 0.534649 0 2.73465 0.534933 0 2.75685 0.535097 0 1.84574 0.567829 0 1.85002 0.5891 0 1.82885 0.573854 0 1.80803 0.568117 0 1.88868 0.607942 0 1.88972 0.586693 0 1.87089 0.593779 0 1.88441 0.566987 0 1.86584 0.572489 0 1.92732 0.605768 0 1.9092 0.592553 0 1.9054 0.572143 0 1.92416 0.567777 0 1.93053 0.58657 0 1.92927 0.627896 0 1.90981 0.614114 0 1.96442 0.567108 0 1.97059 0.585754 0 1.94526 0.571907 0 1.98965 0.59275 0 1.98583 0.571997 0 1.95038 0.592621 0 1.96677 0.605095 0 2.00635 0.604051 0 2.01039 0.585069 0 2.02975 0.593888 0 2.00586 0.566675 0 2.02693 0.572597 0 1.98665 0.634203 0 1.96874 0.623965 0 1.98805 0.61331 0 1.94624 0.613697 0 1.9511 0.634053 0 1.96857 0.646794 0 2.03393 0.647237 0 2.02882 0.612621 0 2.02546 0.635688 0 1.99459 0.652612 0 2.00952 0.623921 0 2.00398 0.641242 0 2.04905 0.564991 0 2.04792 0.583942 0 2.06741 0.574687 0 2.07211 0.59343 0 2.05096 0.602462 0 2.08604 0.566176 0 2.12765 0.604075 0 2.1102 0.571841 0 2.10893 0.593142 0 2.08621 0.604716 0 2.09367 0.584102 0 2.04304 0.624606 0 2.06443 0.614798 0 2.07505 0.636365 0 2.05716 0.633625 0 2.08805 0.627432 0 2.10817 0.614646 0 2.0986 0.622952 0 2.13112 0.567858 0 2.14794 0.598864 0 2.16164 0.605637 0 2.13131 0.584654 0 2.15468 0.572319 0 2.16519 0.585656 0 2.17664 0.565937 0 2.21406 0.604827 0 2.20769 0.586932 0 2.18781 0.608274 0 2.18459 0.591899 0 2.19427 0.573005 0 2.2151 0.564859 0 2.12874 0.625958 0 2.1389 0.624374 0 2.16171 0.621962 0 2.1832 0.614107 0 2.25846 0.59348 0 2.22829 0.576438 0 2.24851 0.579645 0 2.25158 0.565541 0 2.24112 0.598634 0 2.22366 0.599882 0 2.28114 0.59436 0 2.27825 0.566777 0 2.27711 0.582114 0 2.30022 0.578592 0 2.34825 0.572153 0 2.32241 0.566057 0 2.32999 0.57716 0 2.3131 0.583822 0 2.35874 0.567895 0 2.38843 0.566433 0 2.80651 0.509436 0 2.78126 0.510934 0 2.8375 0.506431 0 2.78098 0.533308 0 2.80418 0.531689 0 2.82571 0.524722 0 2.84975 0.526476 0 2.89253 0.5176 0 2.8693 0.514764 0 2.91343 0.510851 0 2.95116 0.507033 0 2.93471 0.520679 0 2.98 0.508453 0 
    </DataArray>
   </Points>
   <PointData  Vectors="vector">
    <DataArray Name="SortedParticle_ID" type="Int32" Format="ascii">
    0 1 2 3 4 5 6 7 8 9 10 11 12 13 14 15 16 17 18 19 20 21 22 23 24 25 26 27 28 29 30 31 32 33 34 35 36 37 38 39 40 41 42 43 44 45 46 47 48 49 50 51 52 53 54 55 56 57 58 59 60 61 62 63 64 65 66 67 68 69 70 71 72 73 74 75 76 77 78 79 80 81 82 83 84 85 86 87 88 89 90 91 92 93 94 95 96 97 98 99 100 101 102 103 104 105 106 107 108 109 110 111 112 113 114 115 116 117 118 119 120 121 122 123 124 125 126 127 128 129 130 131 132 133 134 135 136 137 138 139 140 141 142 143 144 145 146 147 148 149 150 151 152 153 154 155 156 157 158 159 160 161 162 163 164 165 166 167 168 169 170 171 172 173 174 175 176 177 178 179 180 181 182 183 184 185 186 187 188 189 190 191 192 193 194 195 196 197 198 199 200 201 202 203 204 205 206 207 208 209 210 211 212 213 214 215 216 217 218 219 220 221 222 223 224 225 226 227 228 229 230 231 232 233 234 235 236 237 238 239 240 241 242 243 244 245 246 247 248 249 
    </DataArray>
    <DataArray Name="OriginalID" type="Int32" Format="ascii">
    0 1 2 4 3 5 6 9 12 16 11 13 7 10 8 18 14 21 17 25 30 20 36 42 32 26 22 27 31 44 38 37 50 43 49 56 81 72 64 51 57 65 58 83 82 73 74 66 90 100 130 120 110 102 91 92 101 111 121 122 112 150 140 169 160 142 152 132 141 131 171 162 161 151 170 178 186 208 201 194 179 187 180 188 210 195 202 203 196 214 220 225 230 209 227 215 216 128 226 235 166 231 221 234 241 242 138 238 232 137 211 191 236 222 129 165 156 183 157 167 184 147 139 205 175 148 149 198 212 223 244 239 159 228 158 176 192 168 218 199 200 213 177 206 185 193 23 24 19 15 35 34 29 33 28 47 40 39 45 46 48 41 59 60 52 68 67 53 61 77 76 85 75 84 70 62 69 54 55 63 80 86 87 71 78 79 93 94 103 104 95 113 135 123 124 115 114 96 105 89 88 97 125 116 133 144 145 134 143 154 153 108 173 155 164 163 172 98 106 99 107 136 181 182 189 117 126 109 204 174 197 190 217 127 118 146 119 240 233 246 207 219 224 229 243 237 245 248 247 249 
    </DataArray>
    <DataArray Name="ErodedLabel" type="Int32" Format="ascii">
    0 0 0 1 0 0 0 0 0 0 0 0 0 0 0 0 0 0 0 0 0 0 0 0 0 0 0 0 0 0 0 0 0 0 0 0 0 0 0 0 0 0 0 0 0 0 0 0 0 0 0 0 0 0 0 0 0 0 0 0 0 0 0 0 0 0 0 0 0 0 0 0 0 0 0 0 0 0 0 0 0 0 0 0 1 0 0 0 0 0 0 0 0 0 1 0 0 1 0 1 1 1 1 0 0 1 1 0 1 1 1 1 1 1 1 1 1 1 1 1 1 1 1 1 1 1 1 1 1 1 1 1 1 0 1 1 1 1 1 1 1 1 1 0 1 1 0 0 0 0 0 0 0 0 0 0 0 0 0 0 0 0 0 0 0 0 0 0 0 0 0 0 0 0 0 0 0 0 0 0 1 0 1 1 1 1 0 0 0 0 0 0 1 0 0 1 0 1 1 1 1 1 1 1 0 1 1 0 0 1 0 1 1 1 1 0 0 1 1 1 1 1 1 1 1 1 1 1 1 1 1 1 1 1 1 1 1 1 1 1 1 1 0 1 0 1 1 1 1 1 
    </DataArray>
    <DataArray Name="Indicator" type="Int32" Format="ascii">
    1 1 1 0 1 1 0 0 0 0 1 0 1 1 1 0 1 0 0 0 0 0 0 0 0 0 0 0 0 0 0 0 0 0 0 0 0 0 0 0 0 0 0 0 0 0 0 0 0 0 0 0 0 0 0 0 0 0 0 0 0 0 0 0 0 0 0 0 0 0 0 0 0 0 0 0 0 0 0 0 0 0 0 0 0 0 0 0 0 0 0 0 0 0 1 0 0 1 0 0 1 0 0 0 0 0 0 0 1 1 1 1 1 1 1 1 1 0 0 0 0 1 1 1 1 1 1 1 1 0 1 0 1 1 1 1 1 1 0 0 1 0 1 1 1 1 1 1 1 1 1 1 1 0 1 1 1 0 0 0 1 1 0 0 0 0 0 0 0 0 0 0 0 0 1 1 0 1 1 1 1 0 1 1 0 1 0 0 0 0 0 0 1 0 0 1 0 1 1 1 1 1 1 1 0 0 1 0 0 0 0 1 1 1 1 0 0 1 1 1 1 1 0 1 0 1 1 1 0 1 1 1 1 1 1 1 1 1 1 1 1 1 1 1 1 1 1 1 1 1 
    </DataArray>
    <DataArray Name="VerticalStress" type="Float32" Format="ascii">
    -946.666570475 -483.733819413 -623.015433188 -1030.064859704 -374.911096699 -240.224827397 -1735.383826682 -1909.639149401 -1875.809170765 -1798.633748031 -283.110432309 -990.876341520 -573.440430554 -634.134452961 -140.823119608 -938.925962243 -549.041590545 -1755.964928274 -1360.285281674 -2052.733057264 -2355.372233559 -1878.906893661 -2619.849871939 -2783.252012812 -1705.272336167 -1975.871934175 -1418.982050485 -1610.131695640 -2023.146845786 -1642.830586094 -1646.180387507 -2014.839413808 -2055.111577771 -1986.852224744 -2849.188535958 -2837.725591992 -2820.140236012 -2748.369531418 -2856.013991874 -1729.580839127 -2220.337764205 -2441.481470497 -1969.624174167 -2001.366132316 -2538.745974630 -2499.632051234 -2161.068695099 -2032.596130695 -2706.414785472 -2728.685344191 -2678.436997018 -2545.689946578 -2726.233006786 -1994.385875817 -2390.529617812 -2172.954964592 -2272.730425870 -2332.375160405 -2240.512543844 -1669.428854568 -1841.861190701 -2548.128974595 -2547.632040304 -2439.315660393 -2575.247478646 -2079.989680387 -1618.983733072 -2086.988107114 -2061.285355556 -2588.305821261 -1771.370982865 -1334.516049426 -2142.293608645 -2002.972812593 -2176.471552326 -2325.353300763 -2244.118210716 -2204.340016004 -2378.727141784 -2304.924887204 -1778.266607803 -1575.047346630 -1472.691488472 -1209.540536683 -775.420448512 -1626.522055885 -1680.787737606 -914.881967745 -1419.402858992 -2094.142389533 -2161.549510435 -1665.430027060 -1441.386938918 -1189.444953496 -857.925888039 -1458.519995753 -1236.589785649 -345.937726164 -1008.324612265 -735.942726883 -488.553999498 -695.452005860 -821.717915453 -1604.965487223 -1375.498634730 -1269.903015526 -1546.485045735 -1372.348120087 -539.136252004 -214.723868251 -49.795540441 -350.014545752 -1002.519133620 -283.394633163 -317.047497443 -228.012018759 -571.542128053 -1376.975831072 -1425.446712716 -1054.530008269 -1035.414840572 -89.284582435 -113.583807559 -640.868613447 -393.773447816 -434.582727762 -303.168762170 -365.857450066 -1198.504783189 -1025.725299905 -1034.401064991 -951.086238458 -522.561883662 -355.558284529 -235.922905352 -563.684158521 -174.740420042 -148.543445164 -994.069913585 -1129.352451614 -1050.773583392 -990.951643401 -333.826486771 -263.936128493 -255.865403023 -302.298995355 -529.644218369 -119.314598998 -272.770446722 -317.523215176 -247.157280385 -462.248085467 -188.712422972 -1018.664327704 -520.326821985 -452.901949459 -719.662299659 -1309.091416518 -1579.724915652 -1326.915033585 -43.719141830 -143.459940924 -1726.559313474 -1713.284433122 -1740.263072886 -1352.681820130 -1650.402293980 -1441.559395640 -1051.823677325 -1004.623442634 -1175.706430178 -1082.608173933 -1485.841695659 -1419.418465474 -470.048707947 -418.665205781 -1006.826980363 -331.555226395 -42.781260218 -90.789278663 -293.875684499 -1074.958228912 -119.940405756 -183.258250657 -1028.761046096 -112.721303100 -1888.368554202 -1477.029527357 -1621.417177760 -1289.882612813 -1070.618074217 -1507.182059188 -1053.988674164 -1075.456849207 -836.489657151 -686.528419946 -852.125779281 -508.047342858 -709.466124553 -219.889460766 -149.234369308 -310.989802924 -604.992687726 -203.051642282 -1742.986956118 -682.682520384 96.436406033 -1212.878862142 -1184.125805297 -1191.773505207 -1141.160527367 -82.771690950 -630.591890610 69.272856622 -1286.335976719 -1197.030503929 -1366.052483100 32.571824774 -218.819661313 -447.968251610 -184.046971336 -90.820658477 -749.473821675 -611.902945786 -857.066781165 -165.603360142 -235.806267411 -124.764282072 -645.139296695 -575.511749817 -189.855802462 -120.225393550 -1176.635085924 236.060214667 -59.284014696 -138.538547818 -141.692854045 -892.987462231 -915.446013591 -770.303876613 -330.031657610 -294.365431181 -414.520471907 -373.457227569 -587.173947369 -926.408906096 -682.984815113 -492.221965989 -472.293392310 -403.738244029 
    </DataArray>
    <DataArray Name="FrictionAngle" type="Float32" Format="ascii">
    0.523598776 0.523598776 0.523598776 0.009705040 0.523598776 0.523598776 0.523598776 0.523598776 0.523598776 0.523598776 0.523598776 0.523598776 0.523598776 0.523598776 0.523598776 0.523598776 0.523598776 0.523598776 0.523598776 0.523598776 0.523598776 0.523598776 0.523598776 0.523598776 0.523598776 0.523598776 0.523598776 0.523598776 0.523598776 0.523598776 0.523598776 0.523598776 0.523598776 0.523598776 0.523598776 0.523598776 0.523598776 0.523598776 0.523598776 0.523598776 0.523598776 0.523598776 0.523598776 0.523598776 0.523598776 0.523598776 0.523598776 0.523598776 0.523598776 0.523598776 0.523598776 0.523598776 0.523598776 0.523598776 0.523598776 0.523598776 0.523598776 0.523598776 0.523598776 0.523598776 0.523598776 0.523598776 0.523598776 0.523598776 0.523598776 0.523598776 0.523598776 0.523598776 0.523598776 0.523598776 0.523598776 0.523598776 0.523598776 0.523598776 0.523598776 0.523598776 0.523598776 0.523598776 0.523598776 0.523598776 0.523598776 0.523598776 0.523598776 0.523598776 0.005656252 0.523598776 0.523598776 0.523598776 0.523598776 0.523598776 0.523598776 0.523598776 0.523598776 0.523598776 0.000041026 0.523598776 0.523598776 0.001132141 0.523598776 0.002185862 0.000973164 0.002009668 0.012913076 0.523598776 0.458307299 0.003784792 0.001050261 0.523598776 0.000803792 0.000808423 0.000073950 0.000393730 0.000195480 0.000920797 0.001001987 0.001186275 0.001179691 0.001178633 0.000656613 0.001267270 0.001442759 0.000994518 0.000946459 0.000946182 0.000979979 0.000998960 0.000894195 0.000419200 0.001737644 0.001735263 0.007911171 0.000746626 0.001067075 0.001044858 0.001273280 0.000648262 0.001223472 0.001111815 0.001370158 0.000882794 0.000730738 0.001541758 0.001458672 0.001465099 0.001488948 0.001667334 0.523598776 0.523598776 0.523598776 0.523598776 0.523598776 0.523598776 0.523598776 0.523598776 0.523598776 0.523598776 0.523598776 0.523598776 0.523598776 0.523598776 0.523598776 0.523598776 0.523598776 0.523598776 0.523598776 0.523598776 0.523598776 0.523598776 0.523598776 0.523598776 0.523598776 0.523598776 0.523598776 0.523598776 0.100599482 0.516715488 0.523598776 0.517483171 0.523598776 0.305860239 0.011579980 0.523598776 0.012034329 0.048056991 0.026515791 0.033182978 0.523598776 0.523598776 0.523598776 0.523598776 0.523598776 0.523598776 0.005198416 0.523598776 0.523598776 0.040954649 0.523598776 0.015879985 0.002785287 0.006976099 0.009059743 0.004989972 0.001010609 0.002008599 0.523598776 0.009265259 0.000719566 0.523598776 0.523598776 0.154136671 0.523598776 0.001920261 0.000869284 0.001940593 0.004967986 0.523598776 0.523598776 0.004167596 0.004134463 0.002703179 0.002630120 0.001958009 0.011983201 0.001355737 0.058491362 0.001926628 0.001610635 0.001737597 0.002575774 0.000876554 0.001014530 0.001647216 0.000791146 0.001277516 0.000468407 0.001148846 0.001075944 0.002143142 0.001826253 0.002555223 0.001680473 0.001811638 0.001971689 0.002106313 0.003767795 0.003194880 0.002980405 0.002020660 0.001826692 0.001479039 
    </DataArray>
    <DataArray Name="Cohesion" type="Float32" Format="ascii">
    400.000000000 400.000000000 400.000000000 6.724060009 400.000000000 400.000000000 400.000000000 400.000000000 400.000000000 400.000000000 400.000000000 400.000000000 400.000000000 400.000000000 400.000000000 400.000000000 400.000000000 400.000000000 400.000000000 400.000000000 400.000000000 400.000000000 400.000000000 400.000000000 400.000000000 400.000000000 400.000000000 400.000000000 400.000000000 400.000000000 400.000000000 400.000000000 400.000000000 400.000000000 400.000000000 400.000000000 400.000000000 400.000000000 400.000000000 400.000000000 400.000000000 400.000000000 400.000000000 400.000000000 400.000000000 400.000000000 400.000000000 400.000000000 400.000000000 400.000000000 400.000000000 400.000000000 400.000000000 400.000000000 400.000000000 400.000000000 400.000000000 400.000000000 400.000000000 400.000000000 400.000000000 400.000000000 400.000000000 400.000000000 400.000000000 400.000000000 400.000000000 400.000000000 400.000000000 400.000000000 400.000000000 400.000000000 400.000000000 400.000000000 400.000000000 400.000000000 400.000000000 400.000000000 400.000000000 400.000000000 400.000000000 400.000000000 400.000000000 400.000000000 3.918808424 400.000000000 400.000000000 400.000000000 400.000000000 400.000000000 400.000000000 400.000000000 400.000000000 400.000000000 0.028423590 400.000000000 400.000000000 0.784370400 400.000000000 1.514411740 0.674227797 1.392340985 8.946938556 400.000000000 341.797589941 2.622193201 0.727642638 400.000000000 0.556883298 0.560091940 0.051233898 0.272784214 0.135432667 0.637946846 0.694196882 0.821876110 0.817314164 0.816580965 0.454914884 0.877990547 0.999573190 0.689022854 0.655725988 0.655533997 0.678949753 0.692099882 0.619516920 0.290430399 1.203876017 1.202226734 5.481134742 0.517277978 0.739291549 0.723899019 0.882154649 0.449128897 0.847646702 0.770288309 0.949273747 0.611617838 0.506270486 1.068162460 1.010598102 1.015051337 1.031574530 1.155163728 400.000000000 400.000000000 400.000000000 400.000000000 400.000000000 400.000000000 400.000000000 400.000000000 400.000000000 400.000000000 400.000000000 400.000000000 400.000000000 400.000000000 400.000000000 400.000000000 400.000000000 400.000000000 400.000000000 400.000000000 400.000000000 400.000000000 400.000000000 400.000000000 400.000000000 400.000000000 400.000000000 400.000000000 69.933439762 393.666560844 400.000000000 394.370453161 400.000000000 218.771168704 8.023204145 400.000000000 8.338030309 33.320514742 18.374985391 22.998283705 400.000000000 400.000000000 400.000000000 400.000000000 400.000000000 400.000000000 3.601600361 400.000000000 400.000000000 28.390087935 400.000000000 11.002901318 1.929708320 4.833261879 6.276946144 3.457182434 0.700170963 1.391599766 400.000000000 6.419343638 0.498530317 400.000000000 400.000000000 107.642835153 400.000000000 1.330397429 0.602257952 1.344484020 3.441949965 400.000000000 400.000000000 2.887411866 2.864456400 1.872821901 1.822204554 1.356550328 8.302602749 0.939282520 40.570281669 1.334808498 1.115881972 1.203843884 1.784552187 0.607294339 0.702887296 1.141225924 0.548122140 0.885089797 0.324522012 0.795944412 0.745436241 1.484814831 1.265266529 1.770314585 1.164266714 1.255141111 1.366027938 1.459298858 2.610417570 2.213485399 2.064891451 1.399955934 1.265570624 1.024709325 
    </DataArray>
    <DataArray Name="Pressure" type="Float32" Format="ascii">
    785.264297044 1021.715096016 976.271704854 957.861904803 692.171905208 659.707428281 895.877477368 1028.618127193 1256.055174048 1485.149104699 739.488785785 1094.798432695 845.277838548 966.802822018 623.090253428 743.745548421 896.736125281 934.345824047 1017.562656873 1726.083540673 1750.034197499 1649.886362499 1720.658284167 1748.232760351 1019.990688337 1035.032684273 707.484854726 843.929526057 1221.314691420 1446.859184094 1218.775820922 1442.824403693 1738.778439010 1618.385471831 1824.309411756 1879.389934832 2035.934790948 1922.782259354 1956.127492147 1483.982620069 1693.294308315 1615.822500417 1438.708817702 1433.517207315 1702.697465915 1611.509216757 1520.100488935 1366.784456264 2001.722598940 2011.739489545 1988.216208711 1941.388680072 2059.139602742 1277.911415189 1662.787792050 1364.065469522 1602.631697891 1698.754108929 1607.511152828 1311.950895452 1478.135926782 1893.502994798 1908.840738059 1836.152867168 1915.564605132 1309.475856258 1416.161186753 1268.908562243 1486.140475691 1783.850446825 1182.934932952 1296.557152475 1595.513646476 1649.702090544 1386.794928790 1766.991180745 1643.257828638 1419.550380255 1601.477876666 1642.041786513 1253.828071500 1406.199831889 1064.389717453 1156.254043725 732.309354952 1391.983044612 1281.229373477 925.686264148 1173.259768130 1367.250285793 1345.021796149 1246.632241704 1248.538356748 1228.173745109 917.826807164 1287.603655245 922.172702338 311.095920678 1009.129407348 608.558891446 488.325990834 709.207944293 914.910628356 1288.649303647 855.091547162 1278.667018837 1545.854301130 826.390355428 401.380374855 177.319952544 65.522877782 332.026078328 1033.050360421 308.976974839 318.916594917 228.057140081 590.938659431 1377.619040205 1425.076959244 1053.744758880 1034.140635213 89.796979039 113.840477646 642.222694616 392.946917820 434.589792589 302.473231160 365.448035850 1198.311106672 1026.160394702 1033.675836218 949.798827415 522.281038945 355.438909796 234.968602306 562.556531449 174.713467396 147.831800784 994.059185732 1129.181829813 1049.849722841 993.033193501 332.562241157 263.382284402 254.938073015 301.547208798 755.866614691 649.980123803 581.320871129 588.302707015 553.777051820 817.452713851 704.779183973 900.149580489 903.627210127 751.763458824 708.403398796 796.542485065 866.759834414 632.985699203 628.709189329 553.985025179 1042.747169972 701.225755397 868.479905321 896.156990302 1120.046766910 663.331987708 648.945984071 746.971922310 1306.958457010 1100.638443427 1409.945995361 1359.843121584 450.937969885 763.441051242 656.025907636 798.267752174 510.421896646 306.265475503 293.504219054 778.843320275 45.592632073 163.834600093 861.938135447 42.067960875 1177.051262192 1087.915693426 969.780789179 998.120127675 653.957810554 1215.900472251 1011.322878454 1078.283770045 1028.718464394 741.520135098 998.697391112 420.100194045 641.184350054 233.937664482 172.251257523 309.388047193 631.151699807 212.909319844 1298.656900717 600.654929940 -136.250876180 915.686874067 1121.173555041 1073.693705408 1050.292082763 62.320668607 581.505122977 -80.442454511 1292.806712893 1138.912566547 982.124222218 -75.885865453 174.942223531 430.101146211 168.670943606 96.014834364 706.000190939 610.716702014 878.719160708 164.272468395 213.742448383 114.213933578 615.586281717 544.884228959 123.076467388 101.909200501 1114.055656168 -270.284996968 11.354071215 122.397939570 150.180847618 891.149198997 915.629304998 771.470112622 332.367006009 294.610108868 415.864470034 374.303776792 587.956953306 926.949375572 683.084502321 498.422774319 474.229669582 399.281402551 
    </DataArray>
    <DataArray Name="Density" type="Float32" Format="ascii">
    2040.449868773 2040.445764116 2040.284061543 2040.169121246 2040.334799912 2040.533800035 2040.167185511 2040.131268235 2040.158706881 2042.554599976 2040.306265566 2040.060420107 2040.144931017 2040.105841048 2040.382503580 2040.073550716 2040.139523408 2040.055229452 2040.015074604 2043.733190320 2054.230573947 2040.148634287 2056.286185532 2057.018648655 2039.985834921 2040.000812794 2040.031796855 2039.984931731 2040.032162940 2039.931782598 2040.019740949 2040.003535507 2039.985221618 2040.023294186 2062.245194856 2061.272950978 2071.598011651 2068.430470937 2073.560111362 2040.005517926 2040.058149608 2039.988113739 2045.414040312 2040.038241028 2039.817764033 2040.069656195 2052.302511549 2040.144433714 2076.029059659 2044.059320768 2102.802200448 2049.088081009 2100.211075393 2039.972074835 2040.222548543 2057.034704902 2040.097401696 2040.165875324 2040.120002380 2040.116384956 2041.029785619 2065.058803748 2064.166918054 2040.220783116 2039.989422087 2039.735000401 2039.997819617 2040.310910080 2040.432986924 2039.344358549 2052.915906181 2040.331241898 2039.785416731 2040.109317656 2040.002712915 2047.537356917 2061.935674874 2097.637740024 2106.369725329 2040.044329293 2040.231141899 2040.306045649 2039.827820483 2040.148822553 2039.754050398 2039.869804930 2047.575289329 2040.546339672 2039.453896659 2097.701620728 2040.153162533 2040.212096375 2040.063262263 2039.966289559 2052.744094099 2039.667544716 2040.369176554 2041.870598324 2040.312560188 2123.029289472 2039.780800748 2040.277561846 2039.694047024 2144.200195280 2086.681328674 2039.754838596 2038.938681361 2077.226728201 2166.102055114 2040.540114183 2041.200068769 2242.697155886 2053.366667970 2042.517865770 2040.126987990 2040.899690074 2040.562578266 2039.577762134 2039.297476371 2040.039347397 2040.039977114 2041.147643822 2040.720398179 2039.853072254 2060.683244954 2040.193332785 2040.440182242 2040.524834999 2039.490489782 2039.942542434 2039.989615276 2040.122519612 2039.947054797 2040.687106251 2040.579431263 2039.995194426 2040.875893160 2040.843887497 2039.986994325 2039.444785102 2039.772903026 2039.916271559 2040.406114650 2040.595987041 2040.662202244 2040.504139508 2040.131234584 2040.292816600 2040.391043837 2040.275223010 2040.235017566 2040.161242282 2040.275340844 2042.941750837 2040.062171395 2040.100099145 2039.993862507 2039.986847342 2049.104553056 2045.488744754 2040.184230101 2040.395486790 2048.223190070 2071.413927820 2040.034413553 2053.297290423 2040.073350556 2039.837180675 2044.713395063 2048.398370392 2065.587143410 2039.928693501 2046.116494468 2040.185085136 2098.092588181 2039.727390360 2039.850572064 2040.071143064 2040.462213424 2040.396227178 2040.004508352 2042.879649287 2094.012739232 2040.290958316 2097.800045033 2073.881272549 2062.149882850 2065.393943918 2040.094807003 2039.375961127 2063.558827974 2040.017422601 2038.294102827 2054.165520844 2039.780628944 2077.351906126 2056.689181171 2138.805204482 2054.838931495 2040.363482975 2040.764228800 2168.750986069 2164.017663356 2221.212866519 2039.243018372 2090.786702875 2232.368411188 2040.411656743 2039.836340790 2078.961214942 2042.993509148 2040.824509770 2104.935631252 2193.238921437 2131.254171896 2039.608475502 2072.098190287 2041.321598693 2040.485437183 2039.461340504 2065.536730021 2040.978514254 2058.188700897 2208.122783937 2092.382672219 2040.532722964 2120.546787394 2040.562070085 2136.658231142 2210.567413470 2077.286162512 2040.731840711 2225.306734540 2042.150970911 2040.806321807 2040.787603223 2040.646271178 2039.952284375 2040.038062215 2040.239130536 2040.440620776 2040.534115023 2040.423828966 2040.555328491 2040.525641116 2039.954063642 2040.351363622 2040.550523182 2040.338697915 2040.595557443 
    </DataArray>
    <DataArray Name="Velocity" type="Float32"  NumberOfComponents="3" Format="ascii">