<?xml version="1.0"?>
<VTKFile type="PolyData" version="0.1" byte_order="LittleEndian">
 <PolyData>
  <Piece Name ="SoilBlock" NumberOfPoints="250" NumberOfVerts="250">
   <Points>
    <DataArray Name="Position" type="Float32"  NumberOfComponents="3" Format="ascii">
    1.68992 0.509931 0 1.71018 0.510243 0 1.72972 0.509619 0 1.7496 0.509253 0 1.72995 0.529882 0 1.75054 0.531239 0 1.76965 0.509171 0 1.79 0.509326 0 1.82981 0.509427 0 1.80973 0.509534 0 1.84997 0.509462 0 1.79057 0.551276 0 1.77004 0.529686 0 1.78948 0.531171 0 1.76949 0.549293 0 1.80992 0.529241 0 1.82995 0.531128 0 1.82941 0.551215 0 1.80996 0.548839 0 1.84958 0.529222 0 1.8503 0.548547 0 1.87004 0.509569 0 1.89016 0.509477 0 1.91022 0.509629 0 1.93044 0.509482 0 1.88924 0.52894 0 1.89041 0.548332 0 1.86955 0.531042 0 1.86992 0.551634 0 1.90956 0.551969 0 1.9095 0.531209 0 1.92897 0.528725 0 1.93039 0.548045 0 1.97066 0.509475 0 1.95044 0.509767 0 2.03038 0.51014 0 2.01062 0.5094 0 1.99039 0.509972 0 1.96873 0.528482 0 1.98938 0.531735 0 1.98966 0.552688 0 1.94914 0.53147 0 1.97054 0.547526 0 1.95007 0.552244 0 2.02942 0.53189 0 2.00886 0.528284 0 2.01064 0.547107 0 2.02986 0.553187 0 2.05052 0.509355 0 2.07022 0.510299 0 2.09013 0.509316 0 2.10996 0.510381 0 2.06965 0.531994 0 2.06986 0.55341 0 2.04908 0.528227 0 2.05051 0.546852 0 2.09009 0.54673 0 2.08975 0.52821 0 2.10998 0.532027 0 2.11007 0.553573 0 2.12962 0.509337 0 2.14973 0.510228 0 2.16939 0.509371 0 2.18949 0.510175 0 2.20917 0.509401 0 2.15023 0.553323 0 2.1295 0.546767 0 2.17082 0.528183 0 2.16968 0.546789 0 2.15024 0.532172 0 2.13057 0.528144 0 2.1899 0.553286 0 2.19071 0.531807 0 2.21137 0.528279 0 2.20898 0.547122 0 2.22952 0.509888 0 2.2493 0.509466 0 2.28943 0.509586 0 2.26953 0.509843 0 2.30962 0.509622 0 2.24959 0.547444 0 2.23062 0.531867 0 2.25116 0.528488 0 2.23017 0.552596 0 2.27079 0.531381 0 2.29115 0.528594 0 2.28936 0.548081 0 2.26992 0.552388 0 2.3107 0.531329 0 2.31013 0.552 0 2.32963 0.509408 0 2.34979 0.509577 0 2.36989 0.509474 0 2.39003 0.509435 0 2.3506 0.531067 0 2.34995 0.551744 0 2.331 0.529117 0 2.32935 0.548126 0 2.36993 0.548504 0 2.37053 0.529237 0 2.39017 0.531148 0 2.39059 0.551295 0 2.41009 0.509564 0 2.42985 0.50934 0 2.4704 0.509226 0 2.45024 0.509169 0 2.4903 0.509615 0 2.4293 0.551347 0 2.41032 0.529146 0 2.4307 0.531198 0 2.41005 0.548699 0 2.45016 0.529614 0 2.4694 0.531314 0 2.45059 0.549273 0 2.49011 0.529848 0 2.50978 0.510244 0 2.53011 0.509931 0 1.84944 0.58929 0 1.83058 0.571461 0 1.80961 0.569484 0 1.84974 0.568509 0 1.86927 0.572 0 1.88942 0.609139 0 1.88974 0.588048 0 1.8707 0.591767 0 1.88954 0.567732 0 1.93009 0.587168 0 1.92944 0.607602 0 1.90956 0.592441 0 1.90975 0.572479 0 1.92901 0.567259 0 1.91072 0.611874 0 1.92954 0.629019 0 1.98879 0.59351 0 1.96866 0.56677 0 1.9706 0.586303 0 1.9494 0.57298 0 1.95001 0.592897 0 1.96923 0.606726 0 1.99004 0.573262 0 2.00906 0.605718 0 2.0088 0.566237 0 2.01033 0.586026 0 2.02956 0.573551 0 2.02959 0.593786 0 1.98949 0.632874 0 1.96969 0.62704 0 1.94929 0.612642 0 1.95078 0.632107 0 1.96941 0.648678 0 2.02998 0.632897 0 1.99098 0.65185 0 2.0097 0.626111 0 2.00947 0.64679 0 2.02968 0.652242 0 2.0297 0.613545 0 1.99012 0.613199 0 2.0097 0.668581 0 2.03071 0.671458 0 2.04937 0.605235 0 2.04924 0.565986 0 2.05007 0.585483 0 2.06968 0.573872 0 2.06981 0.594114 0 2.08972 0.565726 0 2.1098 0.573875 0 2.11023 0.594087 0 2.08979 0.604844 0 2.08992 0.585205 0 2.04971 0.645668 0 2.07027 0.633145 0 2.06981 0.652884 0 2.04978 0.625646 0 2.06968 0.613846 0 2.10969 0.613824 0 2.11038 0.633266 0 2.09001 0.62513 0 2.11015 0.652588 0 2.08945 0.645599 0 2.15011 0.574043 0 2.15038 0.594002 0 2.17046 0.566017 0 2.17033 0.5853 0 2.13027 0.604818 0 2.12968 0.585135 0 2.17021 0.605267 0 2.13064 0.565692 0 2.21179 0.605416 0 2.19002 0.594066 0 2.19073 0.573501 0 2.21162 0.566124 0 2.20903 0.586051 0 2.16963 0.645656 0 2.15024 0.613843 0 2.12976 0.62487 0 2.17031 0.625233 0 2.12984 0.645615 0 2.15002 0.63321 0 2.15068 0.65209 0 2.21212 0.646775 0 2.18995 0.652773 0 2.19085 0.613634 0 2.20873 0.625984 0 2.19022 0.633324 0 2.0705 0.670798 0 2.06993 0.689199 0 2.05017 0.688265 0 2.0491 0.666724 0 2.08979 0.688362 0 2.10979 0.67184 0 2.10999 0.68993 0 2.091 0.666166 0 2.13038 0.666204 0 2.15033 0.689481 0 2.14879 0.671125 0 2.17029 0.687121 0 2.17067 0.667053 0 2.13038 0.688437 0 2.19088 0.66848 0 2.21591 0.664597 0 2.25093 0.566808 0 2.25014 0.606726 0 2.24982 0.586041 0 2.22998 0.573514 0 2.231 0.593497 0 2.29091 0.607274 0 2.3099 0.592162 0 2.31044 0.572436 0 2.27054 0.572883 0 2.27012 0.593107 0 2.29105 0.567038 0 2.28967 0.587358 0 2.2581 0.64546 0 2.22984 0.632978 0 2.23023 0.61369 0 2.23441 0.64914 0 2.25102 0.626957 0 2.29675 0.62694 0 2.27398 0.630193 0 2.27004 0.612587 0 2.33088 0.56793 0 2.32991 0.587831 0 2.3341 0.608338 0 2.35023 0.591941 0 2.35062 0.571689 0 2.37137 0.58917 0 2.38949 0.571591 0 2.37027 0.568394 0 2.31223 0.611341 0 2.41066 0.569355 0 
    </DataArray>
   </Points>
   <PointData  Vectors="vector">
    <DataArray Name="SortedParticle_ID" type="Int32" Format="ascii">
    0 1 2 3 4 5 6 7 8 9 10 11 12 13 14 15 16 17 18 19 20 21 22 23 24 25 26 27 28 29 30 31 32 33 34 35 36 37 38 39 40 41 42 43 44 45 46 47 48 49 50 51 52 53 54 55 56 57 58 59 60 61 62 63 64 65 66 67 68 69 70 71 72 73 74 75 76 77 78 79 80 81 82 83 84 85 86 87 88 89 90 91 92 93 94 95 96 97 98 99 100 101 102 103 104 105 106 107 108 109 110 111 112 113 114 115 116 117 118 119 120 121 122 123 124 125 126 127 128 129 130 131 132 133 134 135 136 137 138 139 140 141 142 143 144 145 146 147 148 149 150 151 152 153 154 155 156 157 158 159 160 161 162 163 164 165 166 167 168 169 170 171 172 173 174 175 176 177 178 179 180 181 182 183 184 185 186 187 188 189 190 191 192 193 194 195 196 197 198 199 200 201 202 203 204 205 206 207 208 209 210 211 212 213 214 215 216 217 218 219 220 221 222 223 224 225 226 227 228 229 230 231 232 233 234 235 236 237 238 239 240 241 242 243 244 245 246 247 248 249 
    </DataArray>
    <DataArray Name="OriginalID" type="Int32" Format="ascii">
    0 1 2 4 3 5 6 9 16 12 20 11 7 10 8 13 17 18 14 21 22 25 30 36 42 31 32 26 27 38 37 43 44 56 49 81 72 64 57 65 66 50 58 51 82 73 74 83 90 100 110 120 101 102 91 92 112 111 121 122 130 140 150 160 169 142 132 151 152 141 131 162 161 170 171 178 186 201 194 208 188 179 187 180 195 202 203 196 209 210 214 220 225 230 221 222 215 216 227 226 231 232 234 238 244 241 246 240 235 239 236 242 245 243 247 248 249 24 19 15 23 28 35 34 29 33 46 47 40 39 45 41 48 68 59 60 52 53 61 67 77 75 76 84 85 70 62 54 55 63 87 71 78 79 88 86 69 80 89 95 93 94 103 104 113 123 124 115 114 97 106 107 96 105 125 126 116 127 117 143 144 153 154 135 134 155 133 174 164 163 172 173 157 145 136 156 137 146 147 176 167 165 175 166 108 109 99 98 119 128 129 118 138 149 148 159 158 139 168 177 189 191 190 181 182 206 212 211 197 198 204 205 193 184 183 185 192 207 200 199 217 218 219 224 223 229 233 228 213 237 
    </DataArray>
    <DataArray Name="ErodedLabel" type="Int32" Format="ascii">
    0 0 0 0 0 0 0 0 0 0 0 1 0 0 1 0 0 0 0 0 0 0 0 0 0 0 0 0 0 0 0 0 0 0 0 0 0 0 0 0 0 0 0 0 0 0 0 0 0 0 0 0 0 0 0 0 0 0 0 0 0 0 0 0 0 0 0 0 0 0 0 0 0 0 0 0 0 0 0 0 0 0 0 0 0 0 0 0 0 0 0 0 0 0 0 0 0 0 0 0 0 0 0 0 0 0 0 0 0 0 0 0 0 0 0 0 0 1 0 0 0 0 0 0 1 0 0 0 0 0 0 1 0 0 0 0 0 0 0 0 0 0 0 0 0 0 0 0 0 0 0 0 0 0 0 0 0 0 0 0 0 0 0 0 0 0 0 0 0 0 0 0 0 0 0 0 0 0 0 0 0 0 0 0 0 0 0 0 0 0 0 0 0 0 0 0 0 0 0 1 1 0 0 0 1 0 0 0 0 0 0 1 0 1 0 1 1 0 1 1 0 0 0 0 0 1 1 0 0 0 0 0 1 1 0 1 1 1 1 1 0 1 1 1 1 1 1 1 1 1 
    </DataArray>
    <DataArray Name="Indicator" type="Int32" Format="ascii">
    1 1 1 1 1 1 0 0 0 0 0 1 1 1 1 0 0 1 1 0 0 0 0 0 0 0 0 0 0 0 0 0 0 0 0 0 0 0 0 0 0 0 0 0 0 0 0 0 0 0 0 0 0 0 0 0 0 0 0 0 0 0 0 0 0 0 0 0 0 0 0 0 0 0 0 0 0 0 0 0 0 0 0 0 0 0 0 0 0 0 0 0 0 0 0 0 0 0 0 0 0 1 0 0 1 0 1 1 0 1 1 1 1 1 1 1 1 1 1 1 1 1 1 1 1 0 0 1 1 0 0 1 1 0 0 0 0 0 0 0 0 0 0 0 0 1 1 1 1 1 0 1 0 1 1 0 0 1 1 0 0 0 0 0 0 0 0 0 0 0 0 0 0 0 0 0 0 0 0 0 0 0 0 0 0 0 0 0 0 0 0 0 0 0 0 0 0 0 0 1 1 0 0 0 1 1 1 1 1 1 1 1 1 1 1 1 1 1 1 1 0 0 0 0 0 1 1 0 0 0 0 0 1 1 0 1 1 1 1 1 0 1 1 1 1 1 1 1 1 1 
    </DataArray>
    <DataArray Name="VerticalStress" type="Float32" Format="ascii">
    -1085.577379703 -285.142333510 -677.923925094 -1019.921590802 -392.657123571 -246.212333808 -1434.401320957 -1548.547086253 -1637.371993802 -1674.532168935 -1944.742482966 -159.146276250 -393.785080837 -513.235521017 -86.127389217 -1105.874987830 -1442.379851954 -796.323473932 -670.458254589 -1733.093992257 -1178.041653882 -2056.244905286 -2441.328264853 -2511.943551185 -3029.491113743 -2021.853914549 -1822.469270532 -1707.170460403 -1245.427510176 -1866.931017413 -2072.175815335 -2316.139202037 -1915.361402732 -3439.933801950 -3035.070750083 -3386.519488301 -3684.093776379 -3200.770195000 -2773.077415667 -2867.259748026 -2283.951843807 -2373.074346994 -2188.203299148 -1808.171306124 -3115.788161261 -3159.331583510 -2742.481493044 -2696.943450856 -3899.106327584 -3370.932474150 -4066.997803879 -3534.171850080 -3251.368635761 -2805.161841272 -3276.970396903 -2949.909259809 -2892.956877395 -3390.502707078 -3156.147174116 -2781.777744517 -4014.534436530 -3406.154710058 -3869.239369112 -3272.627571219 -3582.339902330 -2757.375168457 -2938.791366835 -3286.643939053 -2884.499396760 -3249.243693807 -3280.806128489 -2657.797775492 -2925.992228998 -3008.204056015 -2673.826130353 -3151.677492398 -3395.002833118 -3079.858871153 -3007.906336333 -2555.582697353 -2229.691108306 -2792.058463539 -2761.976952526 -2304.930241837 -2293.882174439 -2407.438924167 -2091.087914414 -1825.842954957 -2272.210841129 -1672.265972839 -2560.355916932 -2137.161341145 -1948.260748484 -1678.101098816 -1352.212205290 -1210.300586082 -2256.400632597 -1493.799669494 -796.349461191 -1025.254884709 -1313.063472779 -542.424196302 -1596.516126877 -1539.223090502 -1190.178269647 -1560.440751371 -911.326918597 -224.202953363 -1202.714587000 -470.102720906 -853.471835279 -377.892231008 -267.518576884 -55.694996640 -418.833361224 -533.443269093 -352.036151153 -128.714040536 -211.353409416 -346.726166662 -456.898179494 -502.919568146 -138.821479225 -518.941768752 -48.811018189 -1282.993295069 -1065.931654029 -405.010890345 -515.772616693 -1449.935460270 -1643.020924714 24.913980885 -138.787026407 -1859.186391885 -1907.492567500 -1883.147472877 -1590.889377364 -1399.298381376 -1433.791796903 -1957.352090115 -1602.784042874 -2162.869034619 -1749.422176524 -1985.371810439 -1621.543970782 -419.003652715 -515.023444671 -655.892563584 -51.745424069 -85.148661157 -1533.952366797 78.993924388 -1131.592293693 -441.768762933 -548.512698184 -1704.662804850 -1397.047597510 -140.773348614 42.332442582 -1753.833822656 -2494.588090126 -1916.272916982 -2528.009763120 -1947.722543827 -2748.124183477 -2632.377484234 -2100.891374209 -1666.490364327 -2428.617729439 -1152.461972358 -1389.929961531 -1027.705506469 -1864.259872908 -1627.697027432 -1398.990935646 -980.595525577 -1110.629823140 -1171.626549228 -1058.258263011 -2516.133454918 -2113.213170949 -2568.113920246 -1947.140074061 -1853.031437069 -2458.048258334 -1824.944340829 -2626.308650498 -1104.057077248 -1448.405075531 -2003.179753191 -2201.158048205 -1681.002000707 -1274.583610897 -1945.772007085 -1463.226918004 -1609.889104806 -1222.026076626 -1711.367714373 -1081.990576150 -397.356248718 -804.542148399 -1300.679255801 -1079.095471008 -971.370727879 -330.306258615 -25.602995703 -27.933354610 -315.220959072 -487.083070571 -1052.455928853 -521.991749333 -626.759127377 -777.441705615 318.795746322 -664.460118255 -138.028956953 -181.831887614 -191.889871565 119.133850000 -202.044006806 -2149.885338946 -1338.699916862 -1679.653640190 -2144.771084620 -1618.592658142 -181.329889842 -689.701240838 -1264.340904759 -1350.209357866 -1212.987461699 -1323.540715600 -1171.583664634 -314.334745583 -929.164786068 -1066.314841144 25.684898426 -246.325816766 -401.347174313 -224.256197229 -689.742047729 -1286.748736673 -480.891071531 -328.976166491 -537.233670495 -429.271537128 -341.466295941 -472.693315127 -657.166440113 -382.281675799 -539.563091765 
    </DataArray>
    <DataArray Name="FrictionAngle" type="Float32" Format="ascii">
    0.523598776 0.523598776 0.523598776 0.523598776 0.523598776 0.523598776 0.523598776 0.523598776 0.523598776 0.523598776 0.523598776 0.523598776 0.523598776 0.523598776 0.523598776 0.523598776 0.523598776 0.523598776 0.523598776 0.523598776 0.523598776 0.523598776 0.523598776 0.523598776 0.523598776 0.523598776 0.523598776 0.523598776 0.523598776 0.523598776 0.523598776 0.523598776 0.523598776 0.523598776 0.523598776 0.523598776 0.523598776 0.523598776 0.523598776 0.523598776 0.523598776 0.523598776 0.523598776 0.523598776 0.523598776 0.523598776 0.523598776 0.523598776 0.523598776 0.523598776 0.523598776 0.523598776 0.523598776 0.523598776 0.523598776 0.523598776 0.523598776 0.523598776 0.523598776 0.523598776 0.523598776 0.523598776 0.523598776 0.523598776 0.523598776 0.523598776 0.523598776 0.523598776 0.523598776 0.523598776 0.523598776 0.523598776 0.523598776 0.523598776 0.523598776 0.523598776 0.523598776 0.523598776 0.523598776 0.523598776 0.523598776 0.523598776 0.523598776 0.523598776 0.523598776 0.523598776 0.523598776 0.523598776 0.523598776 0.523598776 0.523598776 0.523598776 0.523598776 0.523598776 0.523598776 0.523598776 0.523598776 0.523598776 0.523598776 0.523598776 0.523598776 0.310267432 0.523598776 0.523598776 0.523598776 0.523598776 0.523598776 0.523598776 0.523598776 0.523598776 0.523598776 0.523598776 0.523598776 0.523598776 0.523598776 0.523598776 0.523598776 0.523598776 0.523598776 0.523598776 0.523598776 0.523598776 0.523598776 0.523598776 0.523598776 0.523598776 0.523598776 0.523598776 0.523598776 0.523598776 0.523598776 0.523598776 0.523598776 0.523598776 0.523598776 0.523598776 0.523598776 0.523598776 0.523598776 0.523598776 0.523598776 0.523598776 0.523598776 0.523598776 0.523598776 0.523598776 0.523598776 0.523598776 0.523598776 0.523598776 0.523598776 0.523598776 0.523598776 0.523598776 0.523598776 0.523598776 0.523598776 0.523598776 0.523598776 0.523598776 0.523598776 0.523598776 0.523598776 0.523598776 0.523598776 0.523598776 0.523598776 0.523598776 0.523598776 0.523598776 0.523598776 0.523598776 0.523598776 0.523598776 0.523598776 0.523598776 0.523598776 0.523598776 0.523598776 0.523598776 0.523598776 0.523598776 0.523598776 0.523598776 0.523598776 0.523598776 0.523598776 0.523598776 0.523598776 0.523598776 0.523598776 0.523598776 0.405015251 0.523598776 0.523598776 0.523598776 0.523598776 0.523598776 0.523598776 0.036492167 0.044571644 0.523598776 0.523598776 0.523598776 0.082008479 0.523598776 0.523598776 0.523598776 0.523598776 0.452976742 0.521328674 0.000710685 0.338412122 0.484099607 0.522270476 0.096624565 0.067539885 0.451862416 0.050037059 0.036618375 0.523598776 0.523598776 0.523598776 0.523598776 0.523598776 0.041746473 0.053376928 0.523598776 0.523598776 0.523598776 0.523598776 0.523598776 0.025410697 0.027451002 0.523598776 0.027218396 0.028170073 0.035031232 0.030756781 0.038374477 0.523598776 0.057632577 0.045874192 0.056818871 0.085972293 0.064443321 0.109241189 0.093631146 0.041476469 0.175196476 
    </DataArray>
    <DataArray Name="Cohesion" type="Float32" Format="ascii">
    400.000000000 400.000000000 400.000000000 400.000000000 400.000000000 400.000000000 400.000000000 400.000000000 400.000000000 400.000000000 400.000000000 400.000000000 400.000000000 400.000000000 400.000000000 400.000000000 400.000000000 400.000000000 400.000000000 400.000000000 400.000000000 400.000000000 400.000000000 400.000000000 400.000000000 400.000000000 400.000000000 400.000000000 400.000000000 400.000000000 400.000000000 400.000000000 400.000000000 400.000000000 400.000000000 400.000000000 400.000000000 400.000000000 400.000000000 400.000000000 400.000000000 400.000000000 400.000000000 400.000000000 400.000000000 400.000000000 400.000000000 400.000000000 400.000000000 400.000000000 400.000000000 400.000000000 400.000000000 400.000000000 400.000000000 400.000000000 400.000000000 400.000000000 400.000000000 400.000000000 400.000000000 400.000000000 400.000000000 400.000000000 400.000000000 400.000000000 400.000000000 400.000000000 400.000000000 400.000000000 400.000000000 400.000000000 400.000000000 400.000000000 400.000000000 400.000000000 400.000000000 400.000000000 400.000000000 400.000000000 400.000000000 400.000000000 400.000000000 400.000000000 400.000000000 400.000000000 400.000000000 400.000000000 400.000000000 400.000000000 400.000000000 400.000000000 400.000000000 400.000000000 400.000000000 400.000000000 400.000000000 400.000000000 400.000000000 400.000000000 400.000000000 222.133717168 400.000000000 400.000000000 400.000000000 400.000000000 400.000000000 400.000000000 400.000000000 400.000000000 400.000000000 400.000000000 400.000000000 400.000000000 400.000000000 400.000000000 400.000000000 400.000000000 400.000000000 400.000000000 400.000000000 400.000000000 400.000000000 400.000000000 400.000000000 400.000000000 400.000000000 400.000000000 400.000000000 400.000000000 400.000000000 400.000000000 400.000000000 400.000000000 400.000000000 400.000000000 400.000000000 400.000000000 400.000000000 400.000000000 400.000000000 400.000000000 400.000000000 400.000000000 400.000000000 400.000000000 400.000000000 400.000000000 400.000000000 400.000000000 400.000000000 400.000000000 400.000000000 400.000000000 400.000000000 400.000000000 400.000000000 400.000000000 400.000000000 400.000000000 400.000000000 400.000000000 400.000000000 400.000000000 400.000000000 400.000000000 400.000000000 400.000000000 400.000000000 400.000000000 400.000000000 400.000000000 400.000000000 400.000000000 400.000000000 400.000000000 400.000000000 400.000000000 400.000000000 400.000000000 400.000000000 400.000000000 400.000000000 400.000000000 400.000000000 400.000000000 400.000000000 400.000000000 400.000000000 400.000000000 400.000000000 400.000000000 297.024251319 400.000000000 400.000000000 400.000000000 400.000000000 400.000000000 400.000000000 25.293743640 30.900606088 400.000000000 400.000000000 400.000000000 56.944857112 400.000000000 400.000000000 400.000000000 400.000000000 337.217616731 397.905711620 0.492377361 243.839020626 364.307626345 398.773909128 67.152578371 46.864286113 336.263206716 34.695652039 25.381300345 400.000000000 400.000000000 400.000000000 400.000000000 400.000000000 28.939618806 37.015781132 400.000000000 400.000000000 400.000000000 400.000000000 400.000000000 17.608837621 19.023390892 400.000000000 18.862116128 19.521963560 24.280282737 21.315644516 26.599675862 400.000000000 39.973287972 31.804886294 39.407685638 59.710536074 44.709551581 75.987023856 65.059793936 28.752230331 122.636986108 
    </DataArray>
    <DataArray Name="Pressure" type="Float32" Format="ascii">
    535.740808047 939.143283105 992.405299567 899.973228040 433.304759889 607.667446058 983.551789717 1041.967754756 1460.170541756 1282.864884991 1711.498846773 811.761603572 1056.934815478 1127.419462672 794.343305109 949.618781781 778.063970065 581.551415594 723.957298806 1106.410377855 884.950864648 1750.898843936 1909.636148693 1865.994124615 2022.993278934 1412.806543501 957.719712408 1238.259040012 970.483604645 939.193520018 1451.624873648 1735.985363958 1446.526054966 2196.114309965 1934.521088969 2194.053802000 2396.002783956 2096.129989790 1840.340874349 1804.231312467 1537.100757687 1770.311353686 1647.989425106 1580.896599528 1866.002068871 1926.186614874 1653.327239082 1642.771613480 2531.761173485 2184.593811146 2532.550903461 2169.654613690 2061.389385059 1655.216375687 2044.545459770 1726.092305945 1844.668415494 2158.215292438 1999.784529314 1798.856785930 2526.232430950 2174.942572892 2478.793690237 2122.197055431 2288.720052924 1638.148916335 1895.677971862 1997.875332002 1694.902882032 2044.324778344 2088.052161617 1589.135162753 1781.276895077 1921.589877549 1546.268248061 2038.470866955 2144.892691547 2008.135667827 1906.435659983 1775.432299061 1508.139288179 1777.597025914 1771.047475508 1298.210894915 1604.115402991 1542.891760278 1520.282691273 1531.062943212 1342.142694882 848.689916995 1726.776923033 1455.976168603 1402.858093771 1294.625735908 1343.427691863 1192.763041696 1458.551140527 845.232178424 965.306623144 1064.534312298 722.397926793 366.763027235 1159.993631758 928.398684623 767.803887563 856.948755194 923.684827147 767.949937713 778.221083057 1029.355784314 566.130964015 1116.531165689 639.759073301 802.627414380 449.072886328 1083.757538337 1216.998479999 660.076966082 565.877143064 470.126276349 1017.117334235 977.611087867 525.814773322 776.885613340 650.283826257 731.899335754 935.188886158 914.623254496 841.896303003 730.302381361 1122.424809721 657.228499677 542.280308754 843.465655844 1365.421184530 790.023739705 1148.768871054 793.369811372 523.221017956 1305.844832515 992.867188836 1569.556182589 1391.968082661 1633.766887213 1427.427106223 873.738850301 747.435618819 729.104815361 510.039721624 521.853579576 520.902571049 649.590045529 748.520729423 798.007891586 598.132709136 827.723887168 705.964432891 446.053637052 478.514489740 1027.005064863 1589.496358982 1427.422273283 1382.385198941 1205.286131120 1483.094839249 1381.607348292 1258.955862495 1238.234094255 1223.363173612 439.007789597 742.688389878 691.641145176 524.875998239 1015.206145645 1430.571476631 1108.429935106 1126.980814796 573.539559710 682.715540170 1415.974801869 1128.913842870 1493.619002851 1326.215447649 1146.174413482 1321.030620758 1000.074473024 1539.307093641 1012.178200277 1434.493152833 1482.355809311 1397.804356710 1295.571557562 656.504271417 994.265429162 1128.779704150 540.907264645 763.248787696 806.353487186 861.174127457 328.219304438 635.075245533 1088.952544080 775.869515569 561.114279966 647.117808029 343.252184111 469.345409148 762.717810469 110.849777236 129.991424411 -145.195990593 229.724704179 530.413009574 181.494887373 833.233305959 281.050456441 361.162556617 147.369863514 -127.475322747 208.882131569 1183.022098085 612.161412413 758.550122191 1051.730637010 826.291472644 246.371666340 583.151035006 690.146577049 1123.132573981 860.973326807 1157.415972300 904.959028068 346.844588470 888.781433802 700.145008207 -1.198238665 234.975779985 398.166341129 277.431892498 723.755702956 683.622518802 333.134351542 318.063396967 485.542612977 468.281000953 330.446455657 493.778594746 749.376183216 395.255803003 426.687442167 
    </DataArray>
    <DataArray Name="Density" type="Float32" Format="ascii">
    2040.522577076 2040.610182080 2040.139565068 2040.203960040 2040.534797815 2040.548438123 2040.063455239 2040.193310882 2040.229868253 2045.775885990 2042.105906630 2040.486554606 2040.088778431 2040.257374311 2040.252992062 2039.992534810 2040.108934486 2040.226538891 2040.015461203 2039.920558204 2047.001204901 2040.239132655 2048.078718075 2040.322065313 2051.911268244 2039.967650735 2062.164740959 2040.190107321 2040.138764891 2040.178008208 2040.139752861 2043.699836515 2049.089822595 2058.391083160 2040.363067119 2040.603489257 2062.357703982 2040.483296746 2045.831668807 2040.108026564 2040.120636191 2040.130847211 2065.625625847 2040.121198160 2040.029829971 2054.937146027 2062.052983800 2040.079303885 2066.433911854 2040.672741580 2069.141130800 2040.724978065 2040.152499507 2040.047764134 2057.156404862 2064.789012851 2064.324746140 2058.912598505 2040.126637075 2040.031919414 2069.113574892 2040.680771219 2067.728350291 2040.524779360 2061.393781220 2040.182098512 2065.234579991 2055.239554477 2067.292861631 2039.958913686 2058.072533827 2039.965044576 2040.381783844 2054.576738736 2063.134541474 2040.484291730 2056.558593223 2056.979767419 2040.272806565 2040.349053475 2062.762729160 2039.924321580 2048.648681610 2040.376623589 2040.451388044 2040.231184196 2054.287989227 2039.976334561 2039.875715045 2040.405289882 2042.614271040 2040.357013472 2041.097508768 2040.045723896 2040.207868722 2039.427421758 2039.339288444 2061.244457311 2046.955809870 2040.565555042 2040.111928346 2040.762770751 2047.434448255 2040.358341942 2040.312881943 2040.161979006 2040.140075467 2040.289245592 2039.899961302 2040.195170006 2039.927566403 2039.846973627 2040.441373106 2040.382398689 2040.501294708 2040.584204538 2040.629639195 2040.413235235 2040.409285347 2040.343826988 2039.850699052 2040.087790104 2040.363868098 2039.885232617 2040.518856065 2039.959863885 2040.137069155 2039.910064349 2040.048050510 2040.060741246 2048.483942564 2040.345458502 2040.322258471 2050.163753779 2048.935936584 2053.587228017 2040.111681852 2039.956013868 2040.067289972 2039.987303002 2039.973921085 2058.548251708 2040.044173212 2039.976870444 2044.241949984 2041.171575456 2039.870053159 2040.068111944 2040.520286404 2040.339543737 2055.231903510 2040.423130079 2040.139317220 2039.885678207 2043.852756458 2045.600905682 2049.069491639 2040.292889426 2040.474272640 2040.080584436 2058.938876926 2045.164493357 2040.008084115 2040.026355342 2060.618308361 2040.012612861 2042.047491854 2040.076716724 2045.047346550 2040.186712404 2053.807132417 2062.377406454 2039.935004097 2042.321182662 2049.038049239 2054.057848709 2040.191710177 2061.802514525 2040.223286269 2039.920317921 2040.097572534 2057.119646601 2048.412107693 2040.364231960 2047.900913310 2040.078683854 2058.381670781 2040.402406765 2042.504552899 2040.088551958 2057.533523388 2040.100122865 2039.526001483 2047.169359955 2039.944167538 2040.484018652 2040.160009216 2063.339968165 2069.937592958 2040.421315762 2054.646268872 2048.192881791 2040.013670646 2046.232382426 2056.674741880 2040.510196277 2040.222429529 2039.770523224 2040.205550991 2069.276978657 2040.602284978 2040.208790736 2039.873399704 2040.855920397 2071.781281250 2039.973816720 2040.592335484 2040.510078093 2041.436277017 2040.113060190 2052.741856337 2039.948492602 2050.078107145 2039.925428681 2047.537857775 2041.300240924 2039.849469639 2040.094910388 2040.408235091 2039.833964870 2047.623849391 2039.698835168 2039.937668950 2049.222819971 2045.111330541 2041.299039534 2041.079093509 2039.979814150 2040.494722627 2039.294498669 2039.714462334 2040.545333239 2040.281949915 2039.877372186 2040.949815034 2040.458725024 2040.104701645 2039.696087568 2040.085162907 2040.208121194 
    </DataArray>
    <DataArray Name="Velocity" type="Float32"  NumberOfComponents="3" Format="ascii">