<?xml version="1.0"?>
<VTKFile type="PolyData" version="0.1" byte_order="LittleEndian">
 <PolyData>
  <Piece Name ="SoilBlock" NumberOfPoints="250" NumberOfVerts="250">
   <Points>
    <DataArray Name="Position" type="Float32"  NumberOfComponents="3" Format="ascii">
    1.69019 0.509835 0 1.71089 0.510758 0 1.73017 0.509061 0 1.75065 0.508859 0 1.72918 0.529571 0 1.74984 0.5328 0 1.7715 0.508677 0 1.79181 0.509257 0 1.81272 0.509077 0 1.83239 0.50953 0 1.7874 0.530947 0 1.77029 0.549409 0 1.79125 0.552375 0 1.76716 0.529297 0 1.83009 0.551724 0 1.811 0.548168 0 1.84588 0.528637 0 1.85163 0.548439 0 1.80614 0.528558 0 1.82692 0.531059 0 1.8731 0.509528 0 1.89383 0.509136 0 1.85314 0.508983 0 1.91328 0.509868 0 1.93386 0.509079 0 1.86588 0.5312 0 1.87146 0.551729 0 1.88484 0.528485 0 1.89243 0.548017 0 1.92494 0.528543 0 1.93216 0.547737 0 1.91139 0.552037 0 1.90556 0.530971 0 1.97385 0.508997 0 1.9532 0.51003 0 1.99274 0.510589 0 2.03216 0.510952 0 2.01336 0.508695 0 1.96496 0.528367 0 1.98616 0.531461 0 1.94574 0.531211 0 1.97234 0.547147 0 1.95147 0.552309 0 2.01154 0.546656 0 1.99104 0.552884 0 2.03113 0.553006 0 2.02703 0.532168 0 2.00595 0.527991 0 2.05279 0.508324 0 2.07123 0.511777 0 2.09109 0.507855 0 2.10962 0.512605 0 2.0464 0.527882 0 2.05201 0.546328 0 2.06791 0.532242 0 2.0709 0.553629 0 2.11077 0.531927 0 2.10942 0.554696 0 2.09143 0.545504 0 2.12734 0.545997 0 2.0883 0.527983 0 2.12812 0.507797 0 2.14868 0.511416 0 2.16759 0.508379 0 2.20699 0.508552 0 2.1882 0.510921 0 2.13299 0.527716 0 2.14958 0.553672 0 2.16903 0.546377 0 2.17287 0.52726 0 2.15139 0.533183 0 2.21262 0.527952 0 2.21129 0.545905 0 2.18899 0.552907 0 2.19227 0.532843 0 2.22734 0.510916 0 2.24631 0.508722 0 2.30658 0.510518 0 2.2869 0.509068 0 2.26725 0.509753 0 2.22839 0.555486 0 2.25669 0.562702 0 2.24505 0.546838 0 2.23397 0.531021 0 2.2553 0.528284 0 2.29181 0.545009 0 2.27236 0.553163 0 2.30942 0.552854 0 2.27162 0.533192 0 2.29285 0.527654 0 2.32433 0.509887 0 2.34325 0.509584 0 2.36364 0.508691 0 2.38819 0.507686 0 2.32695 0.546561 0 2.31614 0.530536 0 2.35288 0.562115 0 2.35069 0.546893 0 2.33926 0.5288 0 2.40237 0.530658 0 2.38771 0.562013 0 2.36141 0.53186 0 2.37754 0.524167 0 2.39179 0.540884 0 2.37517 0.550364 0 2.43911 0.508345 0 2.4222 0.516021 0 2.40979 0.509884 0 2.49229 0.512426 0 2.4634 0.51092 0 2.42197 0.556072 0 2.44375 0.527045 0 2.40985 0.562176 0 2.43756 0.548932 0 2.42303 0.536848 0 2.46586 0.541634 0 2.45402 0.548054 0 2.47357 0.527187 0 2.48855 0.53524 0 2.53473 0.50721 0 2.51438 0.514128 0 2.5706 0.51287 0 2.53092 0.541022 0 2.51903 0.532571 0 2.50118 0.544822 0 2.54985 0.520147 0 2.57351 0.538942 0 2.55238 0.542341 0 2.61963 0.511765 0 2.59393 0.51201 0 2.64437 0.505962 0 2.63304 0.534079 0 2.59408 0.536968 0 2.61213 0.532282 0 2.67358 0.518397 0 2.6533 0.526697 0 2.69436 0.511986 0 2.72552 0.508025 0 2.75268 0.508615 0 2.7138 0.523218 0 1.84787 0.567496 0 1.84949 0.588901 0 1.83018 0.573082 0 1.8085 0.568481 0 1.89025 0.586527 0 1.87124 0.593205 0 1.88683 0.566832 0 1.8675 0.572962 0 1.88865 0.608207 0 1.90905 0.593301 0 1.90775 0.573229 0 1.92678 0.566792 0 1.93068 0.586254 0 1.92842 0.606008 0 1.92929 0.628266 0 1.91085 0.613493 0 1.94712 0.573286 0 1.98775 0.573182 0 1.95057 0.593543 0 1.96792 0.605442 0 1.9897 0.593926 0 1.96669 0.566424 0 1.97072 0.585354 0 2.00984 0.585255 0 2.03009 0.593435 0 2.02796 0.573542 0 2.00831 0.604711 0 2.00768 0.565916 0 1.9885 0.613874 0 1.94775 0.613713 0 1.95126 0.633445 0 1.96885 0.647682 0 1.98893 0.633301 0 1.96969 0.625503 0 2.02941 0.6515 0 2.02821 0.61342 0 2.02925 0.632659 0 1.99119 0.653075 0 2.00955 0.624853 0 2.0086 0.645854 0 2.03124 0.672567 0 2.00975 0.667413 0 2.05073 0.585065 0 2.06824 0.573476 0 2.07075 0.593511 0 2.04832 0.604545 0 2.0475 0.565731 0 2.08808 0.605399 0 2.09113 0.584545 0 2.08833 0.565683 0 2.11069 0.573234 0 2.10833 0.594205 0 2.06795 0.613562 0 2.04817 0.643247 0 2.07156 0.633318 0 2.06765 0.652525 0 2.0502 0.62435 0 2.11299 0.611791 0 2.10599 0.635193 0 2.12496 0.625346 0 2.09112 0.622896 0 2.11646 0.653443 0 2.12685 0.646895 0 2.08825 0.646852 0 2.13223 0.603859 0 2.1725 0.603627 0 2.17015 0.583052 0 2.12837 0.58463 0 2.15 0.575564 0 2.13331 0.564854 0 2.1497 0.595193 0 2.17186 0.565535 0 2.21689 0.581739 0 2.20396 0.604393 0 2.18907 0.594757 0 2.19306 0.576241 0 2.20704 0.565822 0 2.14308 0.630431 0 2.15912 0.641358 0 2.17199 0.621646 0 2.14494 0.652356 0 2.15382 0.614907 0 2.20171 0.62621 0 2.21504 0.620477 0 2.17689 0.643664 0 2.18779 0.62802 0 2.06638 0.665224 0 2.05967 0.681752 0 2.04672 0.66699 0 2.09806 0.659421 0 2.22279 0.598574 0 2.23593 0.5724 0 2.26584 0.592616 0 2.24335 0.587286 0 2.24541 0.605279 0 2.2673 0.577314 0 2.28925 0.566828 0 2.29056 0.587057 0 2.30588 0.57296 0 2.29193 0.60201 0 2.26612 0.612662 0 2.23177 0.626539 0 2.24693 0.617465 0 2.28097 0.610928 0 2.31359 0.596751 0 2.32731 0.589178 0 2.32762 0.567581 0 2.3391 0.581737 0 2.36018 0.578318 0 2.37989 0.577033 0 
    </DataArray>
   </Points>
   <PointData  Vectors="vector">
    <DataArray Name="SortedParticle_ID" type="Int32" Format="ascii">
    0 1 2 3 4 5 6 7 8 9 10 11 12 13 14 15 16 17 18 19 20 21 22 23 24 25 26 27 28 29 30 31 32 33 34 35 36 37 38 39 40 41 42 43 44 45 46 47 48 49 50 51 52 53 54 55 56 57 58 59 60 61 62 63 64 65 66 67 68 69 70 71 72 73 74 75 76 77 78 79 80 81 82 83 84 85 86 87 88 89 90 91 92 93 94 95 96 97 98 99 100 101 102 103 104 105 106 107 108 109 110 111 112 113 114 115 116 117 118 119 120 121 122 123 124 125 126 127 128 129 130 131 132 133 134 135 136 137 138 139 140 141 142 143 144 145 146 147 148 149 150 151 152 153 154 155 156 157 158 159 160 161 162 163 164 165 166 167 168 169 170 171 172 173 174 175 176 177 178 179 180 181 182 183 184 185 186 187 188 189 190 191 192 193 194 195 196 197 198 199 200 201 202 203 204 205 206 207 208 209 210 211 212 213 214 215 216 217 218 219 220 221 222 223 224 225 226 227 228 229 230 231 232 233 234 235 236 237 238 239 240 241 242 243 244 245 246 247 248 249 
    </DataArray>
    <DataArray Name="OriginalID" type="Int32" Format="ascii">
    0 1 2 4 3 5 6 9 12 16 10 8 11 7 18 14 21 22 13 17 25 30 20 36 42 26 27 31 32 43 44 38 37 56 49 64 81 72 57 65 50 58 51 74 66 83 82 73 90 100 110 120 91 92 101 102 121 122 112 132 111 130 140 150 169 160 131 142 152 151 141 170 171 162 161 178 186 208 201 194 180 189 188 179 187 203 196 210 195 202 214 220 225 230 216 209 222 227 215 235 167 221 226 231 228 241 238 234 223 242 176 236 168 184 232 199 192 212 206 244 239 213 185 218 177 200 207 193 240 233 246 229 219 224 243 237 245 248 249 247 23 24 19 15 34 29 33 28 35 40 39 45 46 47 48 41 52 67 53 61 68 59 60 76 85 84 77 75 69 54 55 63 70 62 88 86 87 71 78 79 89 80 94 103 104 95 93 115 114 113 123 124 105 97 106 107 96 125 126 136 116 118 127 117 135 155 154 134 143 133 144 153 173 174 164 163 172 146 128 166 119 145 156 165 129 137 108 99 98 109 182 181 191 190 175 197 204 205 211 183 147 139 138 148 149 157 217 198 158 159 
    </DataArray>
    <DataArray Name="ErodedLabel" type="Int32" Format="ascii">
    0 0 0 1 0 0 0 0 0 0 0 0 0 0 0 0 0 0 0 0 0 0 0 0 0 0 0 0 0 0 0 0 0 0 0 0 0 0 0 0 0 0 0 0 0 0 0 0 0 0 0 0 0 0 0 0 0 0 0 0 0 0 0 0 0 0 0 0 0 0 0 0 0 0 0 0 0 0 0 0 0 0 0 0 0 0 0 0 0 0 0 0 0 0 0 0 1 1 0 1 1 0 0 1 1 0 0 0 1 1 1 1 1 1 1 1 1 1 1 1 1 1 1 1 1 1 1 1 1 1 1 1 1 1 0 0 1 1 1 1 0 0 0 0 0 0 0 0 0 0 0 0 0 0 0 0 0 0 0 0 0 0 0 0 0 0 0 0 0 0 0 0 0 0 0 0 0 0 0 0 0 0 0 0 0 0 0 0 0 0 0 0 0 0 0 1 0 0 1 1 0 1 1 1 0 1 0 0 0 0 0 0 0 1 0 0 0 1 1 1 1 1 1 1 1 1 1 1 0 1 1 0 1 1 1 1 1 1 1 1 1 1 1 1 1 1 1 1 1 1 
    </DataArray>
    <DataArray Name="Indicator" type="Int32" Format="ascii">
    1 1 1 0 1 1 0 0 0 0 1 1 1 1 1 1 0 0 0 0 0 0 0 0 0 0 0 0 0 0 0 0 0 0 0 0 0 0 0 0 0 0 0 0 0 0 0 0 0 0 0 0 0 0 0 0 0 0 0 0 0 0 0 0 0 0 0 0 0 0 0 0 0 0 0 0 0 0 0 0 0 0 0 0 0 0 0 0 0 0 0 0 0 0 0 0 1 0 0 0 1 0 0 1 1 0 0 0 0 0 1 0 1 1 1 1 1 1 1 0 1 0 1 1 1 1 1 1 1 0 1 1 1 1 1 1 1 1 1 1 1 1 1 1 1 1 0 1 1 1 0 0 0 1 1 1 0 0 0 0 0 0 0 0 0 0 0 0 0 1 1 1 1 1 1 0 0 1 0 1 1 1 0 0 0 0 0 0 0 0 0 0 0 0 0 1 0 0 1 0 0 1 1 1 0 0 0 0 0 0 0 0 0 1 0 0 0 1 1 1 1 0 1 1 1 1 1 1 1 1 0 0 0 0 1 0 0 1 0 1 1 1 1 1 1 1 1 1 1 1 
    </DataArray>
    <DataArray Name="VerticalStress" type="Float32" Format="ascii">
    -1498.115310375 -896.192954450 -837.208315325 -853.362889383 -623.453796748 -614.303261332 -937.377055139 -1172.212122130 -1494.202244202 -1938.058035938 -1126.272312318 -573.559335752 -757.696610336 -882.926187401 -875.549515339 -1035.111218526 -1233.252231367 -795.306733847 -1306.042160128 -1232.783173610 -2432.683633007 -2466.714146483 -2251.412856858 -2577.616400325 -2652.585286908 -1357.552199779 -971.244293300 -1791.866473531 -1419.723341795 -2416.434955844 -1993.862955398 -1647.474986332 -2169.625196912 -3006.585253050 -2919.619119481 -3227.203294761 -3379.351597515 -3291.849727213 -2616.687171083 -2686.152312640 -2524.841819574 -2431.392329945 -2071.425055506 -2512.093493273 -2485.742262385 -2381.205461625 -2875.669796449 -2828.247141981 -3378.017295050 -3243.810924398 -3333.164732195 -3038.432686505 -2985.231139652 -2516.005995865 -2905.155708049 -2424.557431843 -2752.466612007 -2251.978568834 -2499.221735417 -2431.280417703 -2930.781870550 -3127.510438959 -2975.620651538 -3039.624992393 -2767.129191002 -2893.983161979 -2682.759954747 -2166.444909556 -2211.526119516 -2631.815784389 -2674.178876105 -2417.707421436 -2223.105789187 -1967.114413340 -2331.738646850 -2632.250067298 -2695.992743516 -2379.593829828 -2549.849993094 -2569.356129036 -1793.688326489 -1354.836699031 -2063.739046514 -2444.379665684 -2260.691746120 -1553.668599982 -1337.906859125 -1457.564046560 -1821.865518912 -1986.440314159 -2344.194219938 -2337.561165461 -2018.728339800 -1630.849948334 -1476.484269792 -1767.514668770 -948.985243274 -631.942383963 -2017.906256108 -921.573334564 -559.423884775 -1353.451231064 -948.691635931 -794.851712070 -240.883041277 -1707.123831582 -1141.239635607 -1582.408967538 -1677.003383772 -1521.036716156 -211.346871668 -541.840743536 -261.125188074 -385.223819628 -791.192724637 -336.209790334 -258.882163536 -488.575782710 -184.640095558 -1061.325455797 -1169.277253997 -1232.126488485 -314.925472936 -173.431438021 -381.922542171 -1177.199020316 -314.539578224 -118.254724298 -1093.935718701 -1123.052889916 -767.807923186 -350.768095241 -351.767275667 -239.118272888 -904.998304524 -576.788343619 -790.350953368 -596.415357900 -419.300444696 -319.208396429 -843.503544029 -618.522707626 -569.680594830 -598.755296264 -1022.126436979 -731.368518249 -1151.158736492 -995.653501177 -592.818992810 -844.777808671 -1001.877387269 -1189.535757310 -768.905924308 -870.214513837 -612.249439852 -581.776606933 -1222.480157317 -2074.795922392 -871.057087813 -964.914307094 -1382.274219594 -1965.169833019 -1355.627037449 -1933.931211879 -1851.613301081 -2247.072366939 -1092.121939783 -2285.588084841 -773.016058924 -964.211838729 -686.929093328 -545.903461869 -870.060174342 -960.653506838 -862.972034650 -1245.751192410 -807.929413528 -613.852803385 -812.777550736 -907.159374058 -467.316846919 -559.817850009 -2164.667069209 -1994.857550771 -2040.187262251 -1894.969928889 -2244.891326260 -1399.064083618 -1651.376080175 -1922.002403513 -1786.879824543 -1287.553252096 -1481.503925859 -902.192701691 -958.163537509 -415.037968937 -1070.518783776 -1191.981216654 -720.129210852 -920.689257222 -1045.655665242 -125.308533847 -143.804821697 -208.735595939 -1173.401921912 -943.878372250 -1216.010386882 -1567.439023162 -1944.627814995 -2021.056995049 -1224.168394655 -1963.990382798 -914.825991384 -1132.939032991 -1522.480124756 -1524.544845763 -1676.898569769 -719.583931171 -124.780644804 -493.451693729 -110.285418979 -1018.248876330 -61.260782513 -137.028493313 -195.336536628 -432.190225124 -92.589498808 -174.022749903 -746.357932313 -166.629569264 -760.489208780 -1342.135455015 -770.911997386 -835.509843850 -775.830536885 -864.350901963 -1523.202376033 -1087.984345576 -466.822702860 75.416130730 -65.447677876 -328.188484022 18.758787445 -224.395933394 -174.245302971 -219.139082451 -641.025839946 -188.668033680 -108.442437530 -221.123120196 
    </DataArray>
    <DataArray Name="FrictionAngle" type="Float32" Format="ascii">
    0.523598776 0.523598776 0.523598776 0.230100822 0.523598776 0.523598776 0.523598776 0.523598776 0.523598776 0.523598776 0.523598776 0.523598776 0.523598776 0.523598776 0.523598776 0.523598776 0.523598776 0.523598776 0.523598776 0.523598776 0.523598776 0.523598776 0.523598776 0.523598776 0.523598776 0.523598776 0.523598776 0.523598776 0.523598776 0.523598776 0.523598776 0.523598776 0.523598776 0.523598776 0.523598776 0.523598776 0.523598776 0.523598776 0.523598776 0.523598776 0.523598776 0.523598776 0.523598776 0.523598776 0.523598776 0.523598776 0.523598776 0.523598776 0.523598776 0.523598776 0.523598776 0.523598776 0.523598776 0.523598776 0.523598776 0.523598776 0.523598776 0.523598776 0.523598776 0.523598776 0.523598776 0.523598776 0.523598776 0.523598776 0.523598776 0.523598776 0.523598776 0.523598776 0.523598776 0.523598776 0.523598776 0.523598776 0.523598776 0.523598776 0.523598776 0.523598776 0.523598776 0.523598776 0.523598776 0.523598776 0.523598776 0.523598776 0.523598776 0.523598776 0.523598776 0.523598776 0.523598776 0.523598776 0.523598776 0.523598776 0.523598776 0.523598776 0.523598776 0.523598776 0.523598776 0.523598776 0.004155157 0.093907034 0.523598776 0.051724513 0.002092697 0.523598776 0.523598776 0.008584082 0.002350327 0.458307299 0.523598776 0.523598776 0.002521246 0.003812580 0.000829409 0.000342468 0.001989291 0.002032777 0.002444285 0.001641637 0.001988384 0.002455306 0.002688697 0.016862999 0.001833318 0.002759448 0.002291625 0.002589364 0.002665566 0.002545123 0.002422848 0.002590985 0.003011463 0.003077318 0.005318661 0.003051077 0.002477787 0.002764166 0.005232919 0.004129557 0.005851311 0.004135733 0.002541236 0.004094195 0.523598776 0.523598776 0.523598776 0.523598776 0.523598776 0.523598776 0.523598776 0.523598776 0.523598776 0.523598776 0.523598776 0.523598776 0.523598776 0.523598776 0.523598776 0.523598776 0.523598776 0.523598776 0.523598776 0.523598776 0.523598776 0.523598776 0.523598776 0.523598776 0.523598776 0.523598776 0.523598776 0.523598776 0.523598776 0.523598776 0.523598776 0.523598776 0.523598776 0.523598776 0.206822545 0.523598776 0.523598776 0.523598776 0.523598776 0.523598776 0.320829996 0.523598776 0.523598776 0.523598776 0.523598776 0.523598776 0.523598776 0.523598776 0.523598776 0.523598776 0.523598776 0.523598776 0.523598776 0.523360246 0.442597467 0.026030647 0.523598776 0.523598776 0.048327766 0.068325122 0.523598776 0.000668830 0.006952845 0.027854228 0.523598776 0.523598776 0.523598776 0.523598776 0.523598776 0.523598776 0.523598776 0.523598776 0.523598776 0.016441164 0.523598776 0.523598776 0.523598776 0.006526381 0.005417190 0.003889329 0.006768466 0.083523751 0.006961834 0.006749212 0.004551201 0.001755822 0.014217555 0.053815557 0.428413833 0.013722268 0.030613712 0.523598776 0.000560570 0.102626189 0.003096353 0.228830343 0.523598776 0.003502128 0.003090235 0.004019868 0.002996494 0.003629108 0.003292526 0.002926659 0.002643362 0.000957225 0.002229497 0.000545024 0.002813083 0.002118703 
    </DataArray>
    <DataArray Name="Cohesion" type="Float32" Format="ascii">
    400.000000000 400.000000000 400.000000000 162.292962556 400.000000000 400.000000000 400.000000000 400.000000000 400.000000000 400.000000000 400.000000000 400.000000000 400.000000000 400.000000000 400.000000000 400.000000000 400.000000000 400.000000000 400.000000000 400.000000000 400.000000000 400.000000000 400.000000000 400.000000000 400.000000000 400.000000000 400.000000000 400.000000000 400.000000000 400.000000000 400.000000000 400.000000000 400.000000000 400.000000000 400.000000000 400.000000000 400.000000000 400.000000000 400.000000000 400.000000000 400.000000000 400.000000000 400.000000000 400.000000000 400.000000000 400.000000000 400.000000000 400.000000000 400.000000000 400.000000000 400.000000000 400.000000000 400.000000000 400.000000000 400.000000000 400.000000000 400.000000000 400.000000000 400.000000000 400.000000000 400.000000000 400.000000000 400.000000000 400.000000000 400.000000000 400.000000000 400.000000000 400.000000000 400.000000000 400.000000000 400.000000000 400.000000000 400.000000000 400.000000000 400.000000000 400.000000000 400.000000000 400.000000000 400.000000000 400.000000000 400.000000000 400.000000000 400.000000000 400.000000000 400.000000000 400.000000000 400.000000000 400.000000000 400.000000000 400.000000000 400.000000000 400.000000000 400.000000000 400.000000000 400.000000000 400.000000000 2.878793848 65.252625172 400.000000000 35.867786907 1.449865135 400.000000000 400.000000000 5.947372599 1.628357579 341.797589941 400.000000000 400.000000000 1.746773837 2.641445969 0.574631293 0.237268988 1.378223224 1.408350904 1.693453445 1.137360429 1.377594740 1.701089176 1.862788404 11.684136016 1.270161330 1.911806651 1.587686880 1.793967818 1.846762328 1.763316802 1.678601416 1.795091381 2.086408882 2.132035269 3.684910842 2.113854929 1.716664681 1.915075309 3.625506037 2.861057370 4.053953419 2.865336409 1.760623968 2.836557172 400.000000000 400.000000000 400.000000000 400.000000000 400.000000000 400.000000000 400.000000000 400.000000000 400.000000000 400.000000000 400.000000000 400.000000000 400.000000000 400.000000000 400.000000000 400.000000000 400.000000000 400.000000000 400.000000000 400.000000000 400.000000000 400.000000000 400.000000000 400.000000000 400.000000000 400.000000000 400.000000000 400.000000000 400.000000000 400.000000000 400.000000000 400.000000000 400.000000000 400.000000000 145.369552732 400.000000000 400.000000000 400.000000000 400.000000000 400.000000000 230.231678365 400.000000000 400.000000000 400.000000000 400.000000000 400.000000000 400.000000000 400.000000000 400.000000000 400.000000000 400.000000000 400.000000000 400.000000000 399.779685719 328.367439430 18.038635577 400.000000000 400.000000000 33.508549653 47.410832176 400.000000000 0.463378780 4.817149777 19.302967551 400.000000000 400.000000000 400.000000000 400.000000000 400.000000000 400.000000000 400.000000000 400.000000000 400.000000000 11.391799150 400.000000000 400.000000000 400.000000000 4.521673321 3.753176341 2.694619581 4.689402237 58.001892774 4.823377960 4.676062054 3.153186339 1.216470539 9.850874838 37.320546792 316.412861655 9.507662703 21.216429945 400.000000000 0.388374232 71.352182713 2.145223316 161.364724888 400.000000000 2.426355511 2.140984419 2.785061352 2.076037953 2.514330751 2.281137051 2.027654740 1.831379052 0.663184999 1.544643340 0.377603462 1.948966263 1.467882442 
    </DataArray>
    <DataArray Name="Pressure" type="Float32" Format="ascii">
    352.356937971 589.100627596 904.676558925 1005.272942447 538.158216987 521.386346702 1260.092969326 1381.912349523 1367.249114000 1349.352733116 638.264144151 370.462404813 412.571115722 621.176170741 735.400316833 495.397233179 1352.782542463 1155.493430994 805.172254500 1073.095443563 1503.765623528 1615.315928476 1362.129635816 1824.611972698 1908.057237071 1484.051891189 1167.047726614 1397.431107819 1154.476446869 1440.110206223 1293.801491577 1127.487241914 1335.502610733 2061.340452996 2054.943830333 2155.568735011 2195.224578308 2128.864311585 1722.896661018 1813.170796478 1579.137259919 1395.340529135 1337.522679887 1713.388703765 1419.810756549 1699.697301209 1956.207574675 1930.007549276 2219.486440955 2148.270789243 2238.452323198 2077.173331575 1923.526313001 1709.337071587 1829.712462046 1626.694800536 1802.651723864 1586.123631190 1662.834624625 1533.272151133 1880.514889717 2140.594112139 2128.428387057 2113.759042427 1974.226789306 2026.956166816 1849.979200044 1297.880745784 1660.546580184 1809.382117076 1790.038348418 1580.865974369 1363.626902609 1397.111090790 1585.036802149 1926.072871077 1868.341949377 1609.243296580 1794.395157657 1756.999117557 1084.154377183 940.643185569 1261.566136226 1502.624947721 1578.539532421 1238.862367565 1262.939150681 1023.513567796 1505.278797275 1427.409450669 1729.901342693 1679.448339489 1610.537665230 1095.058518441 752.345323408 1129.289801438 959.415288469 636.398835969 1210.989217174 892.777943107 560.998690448 1126.792543378 1046.536451449 925.783487661 382.267043921 1169.961468981 819.296262649 1145.303285035 1685.857635905 1537.909262967 183.030830000 556.621180016 247.482254087 365.671149662 695.710016542 344.949340019 268.431073767 491.953491506 178.960870139 1053.904347698 1167.833942325 1234.510363889 317.082477919 176.625389473 378.877086465 1177.383446698 315.454467775 121.311634208 1088.454444843 1123.175667445 768.000471493 348.538002938 351.566959764 241.501907038 903.785533990 574.903268148 789.798834607 596.673746325 419.537194308 318.226227470 574.724987033 302.090516740 364.607197830 421.694577516 398.907647755 265.231963702 791.941807876 508.511432421 283.562473917 568.631303810 956.352827893 1303.267923307 1114.397293795 473.756656098 183.288368114 225.544180371 1304.899749177 1047.824465528 1009.629273247 787.080557350 1140.235128999 1150.692902890 1057.462693307 1186.884481634 1101.300011753 1342.522853641 1255.321999697 1357.401361148 911.542528561 367.937290199 124.601985675 117.221568387 375.138420903 319.267895763 400.474933912 1200.002757932 917.352880491 16.619096885 996.673146069 240.766712122 -16.190007062 -55.392308875 1006.954779412 1279.483838620 978.924961999 865.995395677 1442.228117718 881.258700287 1371.187111278 1565.710716045 1459.704380627 1217.224493686 688.384812678 834.471946584 797.211836209 548.368306607 939.428688131 884.162698064 660.779044634 812.980946612 798.327105686 104.303519354 122.725178908 232.465736955 818.361067391 589.974570414 1116.926807597 1086.951501301 1077.301727654 1239.136549694 710.619226095 1436.920547610 722.252782375 1089.727930438 1245.318246606 1300.468125066 1430.744508961 692.568170847 118.243557126 488.132903587 100.943926109 1009.629758106 35.672389291 70.458100751 188.227867557 434.045411638 127.546469524 119.012094165 304.075200045 134.462264707 694.932047783 988.013638197 733.769129653 932.955268712 727.982056638 713.671025376 945.091583648 1030.992857706 450.695078235 -111.458061443 47.067806620 288.775840115 -61.932722146 199.805743004 190.718610037 259.969539167 649.332017261 215.457389940 111.286912857 213.479966919 
    </DataArray>
    <DataArray Name="Density" type="Float32" Format="ascii">
    2040.693803492 2040.562217090 2040.249347340 2040.288992184 2040.288562039 2040.337887022 2040.216053351 2040.112574777 2041.200176169 2040.116791738 2040.085367849 2040.378740784 2040.281008712 2040.180958238 2040.064166494 2040.144629129 2040.104704040 2040.042983121 2040.046987925 2039.971594808 2040.089095612 2047.643423321 2040.213599230 2049.335803957 2049.460496919 2039.956088883 2040.047716293 2040.086853658 2043.607515581 2040.072704093 2041.577006140 2040.030305615 2039.952450316 2056.371725114 2049.697408858 2052.117597430 2041.328346629 2064.394238586 2040.102882059 2039.978647886 2039.970439436 2050.381358925 2040.009453629 2051.292887284 2039.938920009 2040.011862693 2039.901471624 2040.047468864 2074.281745371 2041.504201138 2091.778080723 2043.405528407 2040.087088966 2051.977683974 2040.047747041 2039.877444660 2040.032624754 2039.949343751 2044.467253960 2041.490017312 2040.017356240 2079.794119364 2040.090293016 2073.072329213 2075.229303747 2040.040061188 2040.004809414 2040.396287155 2055.281219819 2040.105074050 2039.860512512 2040.086260230 2039.928924256 2040.474827254 2040.320830844 2044.161893971 2054.897103836 2101.901360520 2070.219333839 2040.223726151 2050.752115273 2040.502139001 2039.830134555 2039.816660391 2039.880609385 2069.342553939 2039.828466529 2072.924916006 2040.140895079 2040.294682408 2106.838375052 2045.157878348 2039.610787034 2040.424430359 2040.412016811 2040.250238632 2038.340462446 2049.225739153 2039.757579720 2039.834693791 2039.623953606 2039.846483331 2040.509534892 2063.241828855 2043.599538748 2040.012520214 2188.701137820 2136.883718027 2038.548429393 2038.978076695 2040.794848210 2040.700509949 2040.515499881 2041.751596421 2106.138246388 2040.326659776 2040.419026783 2053.880978176 2041.415115284 2040.414344592 2039.606923073 2039.824244118 2040.288239044 2041.335969342 2040.034835555 2039.095844432 2040.524574944 2040.898495954 2039.562975694 2039.824290183 2040.533885876 2040.446137369 2040.391364079 2040.880665797 2040.025276643 2040.245230334 2040.261644868 2040.361670641 2040.621818632 2040.577881912 2040.101497884 2040.281296117 2040.416289559 2040.250513558 2040.064885475 2040.316081451 2044.413040842 2040.131421813 2040.262197725 2040.065543146 2040.066944495 2055.292896358 2039.970037264 2040.067470405 2040.265918593 2040.408231662 2040.043596377 2040.109113508 2040.013390962 2039.983449465 2040.707037291 2051.790251525 2055.835889801 2052.243288759 2040.033990302 2039.957503665 2050.420109685 2056.269112752 2044.018066000 2040.111538846 2040.342169180 2040.320257102 2040.058309373 2040.015900502 2039.807627273 2051.162696967 2086.024502299 2040.392962406 2039.828426306 2040.078009910 2040.501992453 2040.413194402 2049.188026499 2040.206286675 2039.729592954 2048.925245456 2055.748190927 2047.124733407 2043.289818977 2047.207904806 2040.036995274 2058.265848427 2049.324174985 2054.034028151 2039.661343878 2170.748114879 2050.284814301 2052.537310796 2101.886861298 2094.243352445 2039.708484452 2040.624850955 2154.084639303 2054.959912294 2040.401430904 2061.330394742 2048.223576310 2039.949668967 2039.790999339 2053.476222893 2040.641606694 2039.681909604 2041.314834211 2067.343865962 2039.088344953 2043.245651422 2063.771645181 2107.749099698 2040.913999927 2166.527249110 2040.482905200 2054.975360477 2041.284389195 2077.587899129 2040.316102498 2102.104230727 2049.289604508 2040.243173046 2084.190701411 2040.383358593 2039.903036170 2061.249326049 2156.736536658 2091.653876532 2257.592041354 2055.750364314 2049.996633958 2136.157014633 2045.371213069 2041.750936434 2040.982588593 2039.905154244 2042.977292864 2040.271480288 2040.479421637 2040.317437199 2039.691110111 2040.704638167 2040.951588576 2040.452346655 
    </DataArray>
    <DataArray Name="Velocity" type="Float32"  NumberOfComponents="3" Format="ascii">