<?xml version="1.0"?>
<VTKFile type="PolyData" version="0.1" byte_order="LittleEndian">
 <PolyData>
  <Piece Name ="SoilBlock" NumberOfPoints="250" NumberOfVerts="250">
   <Points>
    <DataArray Name="Position" type="Float32"  NumberOfComponents="3" Format="ascii">
    1.69003 0.509347 0 1.71107 0.511639 0 1.73129 0.510716 0 1.74899 0.508644 0 1.7239 0.529799 0 1.74632 0.536976 0 1.77417 0.507423 0 1.79625 0.508189 0 1.81711 0.508568 0 1.83743 0.509133 0 1.79878 0.529088 0 1.76003 0.525555 0 1.78077 0.52882 0 1.77013 0.548815 0 1.78985 0.553324 0 1.85184 0.549536 0 1.82981 0.550193 0 1.81013 0.548187 0 1.83905 0.530257 0 1.81922 0.528505 0 1.85755 0.508738 0 1.87767 0.509316 0 1.89738 0.509107 0 1.93656 0.509296 0 1.91699 0.509534 0 1.87122 0.549015 0 1.87914 0.529701 0 1.89291 0.54943 0 1.85856 0.528907 0 1.91226 0.548826 0 1.89932 0.529373 0 1.94107 0.529493 0 1.92034 0.529435 0 1.93255 0.549592 0 1.95619 0.509492 0 1.97561 0.509602 0 2.01485 0.509691 0 1.99527 0.509347 0 2.03426 0.509652 0 1.95171 0.549128 0 1.96177 0.52946 0 1.98294 0.529726 0 1.97268 0.548583 0 2.02463 0.530911 0 2.00316 0.529138 0 2.0122 0.547203 0 1.99148 0.550453 0 2.03206 0.552178 0 2.05431 0.508402 0 2.07195 0.512908 0 2.09083 0.506958 0 2.11011 0.512307 0 2.07213 0.554527 0 2.04377 0.528616 0 2.05286 0.545813 0 2.06641 0.531657 0 2.09361 0.563502 0 2.08999 0.527236 0 2.10934 0.534684 0 2.11398 0.552958 0 2.08829 0.545345 0 2.12864 0.507572 0 2.16528 0.508343 0 2.14788 0.511841 0 2.18406 0.510724 0 2.20223 0.509328 0 2.15261 0.530906 0 2.12893 0.528073 0 2.15301 0.553981 0 2.17049 0.547345 0 2.13538 0.544957 0 2.17523 0.528948 0 2.18889 0.549205 0 2.19884 0.529811 0 2.21025 0.545528 0 2.26055 0.508578 0 2.23979 0.509228 0 2.22036 0.509458 0 2.2813 0.509101 0 2.30247 0.509627 0 2.2642 0.529452 0 2.2232 0.52989 0 2.22416 0.558096 0 2.24123 0.547789 0 2.24399 0.52924 0 2.26052 0.551723 0 2.27893 0.5348 0 2.29813 0.528456 0 2.29607 0.5499 0 2.28333 0.558244 0 2.34922 0.509064 0 2.32449 0.509061 0 2.37636 0.507656 0 2.35527 0.542329 0 2.33567 0.525558 0 2.3396 0.546328 0 2.31804 0.551878 0 2.3173 0.532735 0 2.3724 0.559981 0 2.36188 0.524958 0 2.37603 0.543767 0 2.39028 0.558119 0 2.39604 0.536961 0 2.38654 0.522361 0 2.42999 0.505913 0 2.4043 0.506225 0 2.48044 0.516809 0 2.46041 0.506989 0 2.428 0.530393 0 2.44284 0.518402 0 2.41244 0.521993 0 2.43838 0.546171 0 2.40723 0.552816 0 2.42137 0.549214 0 2.46216 0.531677 0 2.47857 0.540985 0 2.45368 0.54739 0 2.49153 0.543614 0 2.51819 0.512837 0 2.49725 0.510985 0 2.53795 0.512483 0 2.55688 0.512272 0 2.57874 0.50914 0 2.53637 0.539394 0 2.51412 0.533775 0 2.51111 0.54687 0 2.56702 0.531012 0 2.54755 0.540181 0 2.57258 0.547669 0 2.61068 0.508884 0 2.67973 0.51796 0 2.63566 0.508905 0 2.66247 0.508373 0 2.60694 0.54337 0 2.63001 0.544878 0 2.59451 0.519588 0 2.623 0.527431 0 2.59119 0.539731 0 2.64943 0.523551 0 2.67096 0.538972 0 2.65192 0.542829 0 2.69545 0.509217 0 2.71628 0.509268 0 2.74416 0.507987 0 2.76373 0.514531 0 2.70599 0.533953 0 2.7241 0.541704 0 2.69011 0.540964 0 2.74732 0.536232 0 2.76325 0.538718 0 2.73065 0.523901 0 1.82766 0.575072 0 1.80738 0.5679 0 1.84351 0.567791 0 1.85022 0.588939 0 1.88895 0.607474 0 1.88843 0.586972 0 1.87012 0.594725 0 1.88243 0.566995 0 1.86423 0.572035 0 1.90868 0.591285 0 1.90346 0.571085 0 1.92206 0.568111 0 1.93078 0.585592 0 1.92431 0.605417 0 1.90905 0.614827 0 1.93387 0.625457 0 1.94223 0.611641 0 1.98819 0.591965 0 1.94949 0.592314 0 1.9859 0.609859 0 1.98569 0.571036 0 1.96453 0.605327 0 1.96402 0.566833 0 1.9692 0.585313 0 1.94426 0.57022 0 2.00146 0.609927 0 2.02829 0.590903 0 2.00833 0.585955 0 2.02635 0.570674 0 2.01426 0.605715 0 2.03513 0.609626 0 2.00597 0.566989 0 1.9649 0.619116 0 2.06531 0.574916 0 2.06839 0.600116 0 2.08061 0.579645 0 2.05606 0.604175 0 2.04833 0.566001 0 2.04644 0.586776 0 2.10465 0.576997 0 2.12529 0.56731 0 2.09777 0.596628 0 2.08526 0.600339 0 2.11217 0.598842 0 2.12299 0.587864 0 2.16783 0.572942 0 2.14767 0.586562 0 2.16474 0.591484 0 2.14361 0.569643 0 2.13696 0.5998 0 2.18425 0.589481 0 2.19924 0.58651 0 2.21687 0.583226 0 2.18439 0.568106 0 2.20321 0.566756 0 2.23224 0.58448 0 2.25555 0.574928 0 2.26478 0.568782 0 2.23939 0.570134 0 2.30447 0.570518 0 2.28311 0.577913 0 2.35536 0.565411 0 2.33657 0.565853 0 2.31808 0.567978 0 2.80328 0.509578 0 2.78108 0.509 0 2.82463 0.508907 0 2.84807 0.507521 0 2.78363 0.536389 0 2.81729 0.535331 0 2.79931 0.529813 0 2.85208 0.529542 0 2.83447 0.530082 0 2.87163 0.512681 0 2.89331 0.510111 0 2.9418 0.509893 0 2.91682 0.509207 0 2.89457 0.533752 0 2.87095 0.536147 0 2.91582 0.530241 0 2.93633 0.530954 0 2.96666 0.510286 0 2.99195 0.510345 0 3.04365 0.50843 0 3.0175 0.509702 0 2.95938 0.531372 0 2.98474 0.531208 0 3.04024 0.528792 0 3.01218 0.530605 0 3.07226 0.50657 0 3.09546 0.516529 0 3.06665 0.52509 0 3.1192 0.518904 0 3.14226 0.5127 0 3.1652 0.51768 0 3.18685 0.510501 0 3.21117 0.516284 0 3.23365 0.506817 0 3.26343 0.508395 0 
    </DataArray>
   </Points>
   <PointData  Vectors="vector">
    <DataArray Name="SortedParticle_ID" type="Int32" Format="ascii">
    0 1 2 3 4 5 6 7 8 9 10 11 12 13 14 15 16 17 18 19 20 21 22 23 24 25 26 27 28 29 30 31 32 33 34 35 36 37 38 39 40 41 42 43 44 45 46 47 48 49 50 51 52 53 54 55 56 57 58 59 60 61 62 63 64 65 66 67 68 69 70 71 72 73 74 75 76 77 78 79 80 81 82 83 84 85 86 87 88 89 90 91 92 93 94 95 96 97 98 99 100 101 102 103 104 105 106 107 108 109 110 111 112 113 114 115 116 117 118 119 120 121 122 123 124 125 126 127 128 129 130 131 132 133 134 135 136 137 138 139 140 141 142 143 144 145 146 147 148 149 150 151 152 153 154 155 156 157 158 159 160 161 162 163 164 165 166 167 168 169 170 171 172 173 174 175 176 177 178 179 180 181 182 183 184 185 186 187 188 189 190 191 192 193 194 195 196 197 198 199 200 201 202 203 204 205 206 207 208 209 210 211 212 213 214 215 216 217 218 219 220 221 222 223 224 225 226 227 228 229 230 231 232 233 234 235 236 237 238 239 240 241 242 243 244 245 246 247 248 249 
    </DataArray>
    <DataArray Name="OriginalID" type="Int32" Format="ascii">
    0 1 2 4 3 5 6 9 12 16 13 7 10 8 11 22 18 14 21 17 20 25 30 42 36 27 31 32 26 38 37 50 43 44 49 56 72 64 81 51 57 65 58 82 73 74 66 83 90 100 110 120 102 91 92 101 113 111 121 122 112 130 150 140 160 169 141 131 142 152 132 151 162 161 171 194 186 178 201 208 187 170 180 188 179 196 195 202 203 204 220 214 225 221 215 217 216 209 144 226 227 116 235 238 234 230 107 242 232 236 241 182 125 164 106 145 98 173 197 126 127 128 191 108 155 99 231 210 117 156 222 138 183 174 109 190 166 136 137 146 118 157 167 184 205 211 129 119 175 139 165 19 15 23 24 35 34 29 33 28 40 39 45 46 47 41 48 54 68 53 62 67 61 59 60 52 69 85 76 84 77 63 75 55 103 78 114 70 93 94 123 133 95 86 104 115 153 134 79 143 71 87 96 105 154 172 124 181 189 163 88 80 89 135 97 223 212 239 244 147 149 148 228 198 159 176 218 199 168 158 192 206 200 213 240 233 177 185 207 193 246 224 219 229 237 243 245 247 248 249 
    </DataArray>
    <DataArray Name="ErodedLabel" type="Int32" Format="ascii">
    1 0 0 1 0 0 0 0 0 0 0 0 0 0 0 0 0 0 0 0 0 0 0 0 0 0 0 0 0 0 0 0 0 0 0 0 0 0 0 0 0 0 0 0 0 0 0 0 0 0 0 0 0 0 0 0 0 0 0 0 0 0 0 0 0 0 0 0 0 0 0 0 0 0 0 0 0 0 0 0 0 0 1 0 0 1 0 0 1 1 0 0 0 1 0 1 1 0 1 0 1 1 1 0 0 0 1 1 1 1 1 1 1 1 1 1 1 1 1 1 1 1 1 1 1 1 1 1 1 1 1 1 1 1 1 1 1 1 1 1 0 1 1 1 1 1 1 1 1 1 0 0 0 0 0 0 0 0 0 0 0 0 0 0 0 0 1 1 1 1 1 0 1 0 0 0 1 1 1 0 1 1 0 0 0 1 1 1 0 1 1 0 1 1 1 1 1 1 1 1 1 1 1 1 1 1 1 1 1 1 1 1 1 1 1 1 0 1 1 1 1 1 1 1 1 1 1 1 1 1 0 1 1 0 1 0 0 0 1 1 1 1 1 0 1 1 1 1 1 1 
    </DataArray>
    <DataArray Name="Indicator" type="Int32" Format="ascii">
    1 1 1 0 1 1 0 0 0 0 0 1 1 1 1 0 0 1 0 0 0 0 0 0 0 0 0 0 0 0 0 0 0 0 0 0 0 0 0 0 0 0 0 0 0 0 0 0 0 0 0 0 0 0 0 0 0 0 0 0 0 0 0 0 0 0 0 0 0 0 0 0 0 0 0 0 0 0 0 0 0 0 0 0 0 0 0 0 1 1 0 0 0 0 0 1 1 0 1 0 1 1 1 0 0 0 0 0 1 0 0 1 1 1 1 1 1 1 1 0 0 0 0 1 1 1 1 1 1 0 1 0 0 1 1 1 1 1 1 1 1 0 0 0 0 1 1 1 1 1 1 1 1 1 1 1 1 1 0 1 0 0 0 0 1 1 1 1 1 0 1 0 1 0 0 0 1 1 0 0 1 1 0 1 0 1 1 1 0 1 0 0 1 1 1 1 1 1 1 0 1 1 1 1 1 1 1 1 1 1 1 1 1 1 1 1 0 0 1 1 1 1 1 1 0 0 1 1 1 1 1 1 1 1 1 1 1 1 1 1 1 1 1 1 1 1 1 1 1 1 
    </DataArray>
    <DataArray Name="VerticalStress" type="Float32" Format="ascii">
    -459.802523303 -922.203509198 -805.356817737 -960.106096424 -419.420158268 -456.355608291 -1053.073947130 -1237.323062413 -1654.034450005 -1983.768376319 -1253.553369035 -895.248821251 -1140.639497330 -569.968805526 -700.077205817 -830.311811862 -824.044323558 -995.051292003 -1098.789803011 -1228.907147978 -2199.360495551 -2285.015538298 -2374.977872865 -2332.722383213 -2408.537742298 -1099.704009738 -1694.794418739 -1294.353542881 -1320.102752967 -1358.172263609 -1933.697630347 -2109.347621273 -1967.823306761 -1507.059147559 -2307.828438567 -2341.849412871 -2348.645294868 -2403.570734977 -2251.736573557 -1821.177885894 -2191.334667572 -1943.881950465 -1838.207255187 -1945.727227537 -1735.053895350 -1306.197771443 -1379.629796323 -1499.663025728 -2213.692055369 -2127.442528077 -2328.819843351 -2125.710436515 -1295.679990511 -1998.437882471 -1616.584477153 -1695.978356359 -1058.889241655 -1768.800273374 -1786.791171269 -1317.597843723 -1341.000852037 -2215.228424027 -2137.266428659 -2065.961479349 -2097.361332976 -1955.526649070 -1566.557130418 -2004.019513543 -1294.831992515 -1101.666739869 -1415.079963858 -1615.742138614 -1147.097800562 -1815.320006547 -1266.630881732 -1938.282011587 -1937.926985182 -1782.822960717 -1792.703649201 -1840.191159090 -1267.024248190 -1560.718019663 -713.651784901 -968.089845425 -1382.522018053 -848.787412662 -1239.890634116 -1480.005174539 -472.553890815 -673.110423669 -1781.900279599 -1763.395411491 -1880.797743883 -543.326412980 -1212.729627140 -679.831146388 -946.449210221 -1410.740064591 -98.082691849 -1131.528360156 -635.092446629 -123.948901235 -544.378275828 -1269.837767860 -1476.282113227 -1612.430313917 -1278.595682157 -1182.616470288 -718.867332220 -982.809351383 -757.892968822 -134.158768546 -229.196384751 -205.353405692 -696.173803288 -129.271400794 -204.484077455 -382.338157409 -1388.840717022 -1235.925871632 -1177.918508081 -1220.860599229 -1244.029297365 -258.945618781 -700.901352820 -92.390698764 -489.751880866 -281.846920162 -271.868963819 -1200.609001932 -862.688308183 -1156.525285359 -1152.017764635 -220.374535272 -207.596500208 -911.106150761 -717.223737279 -256.095467683 -573.237055855 -300.722190687 -320.230280846 -1002.708528862 -1053.755697181 -1089.352143108 -871.215307851 -448.267234838 -75.084743759 -279.284901782 -164.616245653 -353.147532722 -837.906317719 -525.542606995 -549.794148786 -818.335969475 -596.018916622 -513.874473295 -929.386310500 -623.599666267 -1017.623849348 -979.072347844 -806.077911789 -875.080800754 -932.720910120 -795.580274978 -844.577356990 -422.075554240 -228.297224212 -201.255556024 -702.986217856 -735.692667115 -102.245512605 -1182.278873015 -348.275749959 -1390.958117609 -1000.899815429 -1003.566041170 -175.705887067 -676.809440681 -839.905948808 -994.737115195 -99.275232052 -142.067518416 -1041.371191335 -197.651340688 -824.510641435 -221.117713423 -730.131489655 -154.825639417 -1221.340446543 -641.533479972 -915.346375136 -1050.818850474 -156.980192040 -133.973355562 -130.423425629 -266.907046064 -823.362664643 -242.003024877 -87.336713028 -725.802589932 -248.454445802 -129.719103062 -90.528113788 -136.541503066 -508.431500040 -930.779216741 -153.879724350 -50.304628156 -244.309075016 -542.543773241 -185.850823898 -176.184004837 -183.709961174 -101.646377030 -31.513397717 -946.458222476 -929.529252422 -850.817153716 -882.225172092 -316.385571534 -267.264493420 -371.646763456 -291.986991355 -399.112785358 -998.877443299 -854.854765362 -892.391485227 -883.231935599 -340.364929107 -249.300444033 -279.693909093 -264.301625043 -855.622657870 -828.970350692 -741.059698897 -789.617380632 -286.417646522 -312.696214780 -357.700607911 -346.117419652 -679.883733105 -731.926821433 -300.667582826 -791.342749984 -717.201453886 -581.026498806 -587.680074089 -525.318107038 -413.907056425 -391.041559601 
    </DataArray>
    <DataArray Name="FrictionAngle" type="Float32" Format="ascii">
    0.523598776 0.523598776 0.523598776 0.009677191 0.523598776 0.523598776 0.523598776 0.523598776 0.523598776 0.523598776 0.523598776 0.523598776 0.523598776 0.523598776 0.523598776 0.523598776 0.270095325 0.523598776 0.523598776 0.523598776 0.523598776 0.523598776 0.523598776 0.523598776 0.523598776 0.523598776 0.523598776 0.523598776 0.523598776 0.523598776 0.523598776 0.523598776 0.523598776 0.523598776 0.523598776 0.523598776 0.523598776 0.523598776 0.523598776 0.523598776 0.523598776 0.523598776 0.523598776 0.523598776 0.523598776 0.523598776 0.523598776 0.523598776 0.523598776 0.523598776 0.523598776 0.523598776 0.523598776 0.523598776 0.523598776 0.523598776 0.523598776 0.523598776 0.523598776 0.523598776 0.523598776 0.523598776 0.523598776 0.523598776 0.523598776 0.523598776 0.523598776 0.523598776 0.523598776 0.523598776 0.523598776 0.523598776 0.523598776 0.523598776 0.523598776 0.523598776 0.523598776 0.523598776 0.523598776 0.523598776 0.523598776 0.523598776 0.019832804 0.160656486 0.523598776 0.006752872 0.523598776 0.523598776 0.003609004 0.000748862 0.523598776 0.523598776 0.523598776 0.001545703 0.523598776 0.000007265 0.000973984 0.523598776 0.001152131 0.523598776 0.000039080 0.000745570 0.000529420 0.389579012 0.523598776 0.523598776 0.000763805 0.003784792 0.000358718 0.000015698 0.058939658 0.000533414 0.000511547 0.000741156 0.000823857 0.000416439 0.000824499 0.000481089 0.000666541 0.000708121 0.000847620 0.000915713 0.000379773 0.000699952 0.000685627 0.000736444 0.000885208 0.001083187 0.000814381 0.001108477 0.000765395 0.001040786 0.001164112 0.000557514 0.000810701 0.000713994 0.000656509 0.000817760 0.000669497 0.000781993 0.000377194 0.000645146 0.001223639 0.001384006 0.000802709 0.000072868 0.000803335 0.000741290 0.000877605 0.000852767 0.000972662 0.523598776 0.523598776 0.523598776 0.523598776 0.474231519 0.453535395 0.468187638 0.438734033 0.523598776 0.231312002 0.523598776 0.523598776 0.523598776 0.411347638 0.423744681 0.061102450 0.027466220 0.009865470 0.085048663 0.014816227 0.523598776 0.016982879 0.523598776 0.476505281 0.523598776 0.006677767 0.002074889 0.028544989 0.523598776 0.009235709 0.005724558 0.523598776 0.015636165 0.078090197 0.002789989 0.000959419 0.004270211 0.523598776 0.002040759 0.001179590 0.199934635 0.002920028 0.003734633 0.003212521 0.001703072 0.001512776 0.002779442 0.002396648 0.002301913 0.003011607 0.002071908 0.001890104 0.001141368 0.002319838 0.004106856 0.001831337 0.000134991 0.001330834 0.002189694 0.001208938 0.001684017 0.001181206 0.001255317 0.001189658 0.001355615 0.001634308 0.000596013 0.004244887 0.000915630 0.000839919 0.000954960 0.000990207 0.000406058 0.000871472 0.000195744 0.000119272 0.000189254 0.001027183 0.001137974 0.001114742 0.001295839 0.000579133 0.001356187 0.001613755 0.001547682 0.001259792 0.001274685 0.001403162 0.001428960 0.002020526 0.001573960 0.001381456 0.001648784 0.002337587 0.002564978 0.001666616 0.001112565 0.001273583 0.000905043 
    </DataArray>
    <DataArray Name="Cohesion" type="Float32" Format="ascii">
    400.000000000 400.000000000 400.000000000 6.704763876 400.000000000 400.000000000 400.000000000 400.000000000 400.000000000 400.000000000 400.000000000 400.000000000 400.000000000 400.000000000 400.000000000 400.000000000 191.814765006 400.000000000 400.000000000 400.000000000 400.000000000 400.000000000 400.000000000 400.000000000 400.000000000 400.000000000 400.000000000 400.000000000 400.000000000 400.000000000 400.000000000 400.000000000 400.000000000 400.000000000 400.000000000 400.000000000 400.000000000 400.000000000 400.000000000 400.000000000 400.000000000 400.000000000 400.000000000 400.000000000 400.000000000 400.000000000 400.000000000 400.000000000 400.000000000 400.000000000 400.000000000 400.000000000 400.000000000 400.000000000 400.000000000 400.000000000 400.000000000 400.000000000 400.000000000 400.000000000 400.000000000 400.000000000 400.000000000 400.000000000 400.000000000 400.000000000 400.000000000 400.000000000 400.000000000 400.000000000 400.000000000 400.000000000 400.000000000 400.000000000 400.000000000 400.000000000 400.000000000 400.000000000 400.000000000 400.000000000 400.000000000 400.000000000 13.742371608 112.273691886 400.000000000 4.678598291 400.000000000 400.000000000 2.500402176 0.518827177 400.000000000 400.000000000 400.000000000 1.070895053 400.000000000 0.005033624 0.674796401 400.000000000 0.798219782 400.000000000 0.027075126 0.516545959 0.366792746 284.446307020 400.000000000 400.000000000 0.529179709 2.622193201 0.248527146 0.010875901 40.881943779 0.369560073 0.354410036 0.513488286 0.570785009 0.288517747 0.571230131 0.333308314 0.461793279 0.490600905 0.587248797 0.634425030 0.263114280 0.484941150 0.475016279 0.510223532 0.613290254 0.750454131 0.564219982 0.767975908 0.530281395 0.721078194 0.806520641 0.386257141 0.561670541 0.494669926 0.454842890 0.566561053 0.463841465 0.541780620 0.261327596 0.446970377 0.847762369 0.958868154 0.556133006 0.050484665 0.556567198 0.513580596 0.608022967 0.590814575 0.673880171 400.000000000 400.000000000 400.000000000 400.000000000 355.625206499 337.696487210 350.350914778 325.095474386 400.000000000 163.178390221 400.000000000 400.000000000 400.000000000 302.232027971 312.511545359 42.385781360 19.033942335 6.835219615 59.065924012 10.265734431 400.000000000 11.767214831 400.000000000 357.617902443 400.000000000 4.626561777 1.437527479 19.781921453 400.000000000 6.398869152 3.966133608 400.000000000 10.833935639 54.212718257 1.932965802 0.664705348 2.958507265 400.000000000 1.413881483 0.817244393 140.394485752 2.023060234 2.587441918 2.225707558 1.179923788 1.048082632 1.925658732 1.660449732 1.594814910 2.086509011 1.435461769 1.309503851 0.790763199 1.607233751 2.845329356 1.268788738 0.093524559 0.922029389 1.517066820 0.837577292 1.166721975 0.818363625 0.869709702 0.824219616 0.939198088 1.132282529 0.412929966 2.940961876 0.634367146 0.581913424 0.661615784 0.686035489 0.281325425 0.603773628 0.135615582 0.082634256 0.131119258 0.711653340 0.788412060 0.772316137 0.897784087 0.401235104 0.939594802 1.118043138 1.072266078 0.872809848 0.883127854 0.972139535 0.990013408 1.399863238 1.090472389 0.957101508 1.142312413 1.619530666 1.777072910 1.154666335 0.770807950 0.882364768 0.627032104 
    </DataArray>
    <DataArray Name="Pressure" type="Float32" Format="ascii">
    1148.083665947 852.823699863 782.918177205 1054.975427915 579.617920405 461.882513978 1353.952624395 1354.439124517 1291.714573689 1287.083060008 711.368888451 691.178682673 690.846116373 420.627734455 353.579640772 1082.554873529 800.821503912 490.333830963 1310.750966866 1001.489108953 1357.437243725 1423.312818840 1515.455992453 1739.266129716 1633.741136077 1004.570297357 1218.115368742 1058.211987550 1380.945048027 1297.124868634 1242.645605876 1359.360180714 1412.887991981 1239.328389179 1748.595500056 1720.885771398 1665.904169204 1677.279488327 1696.010126740 955.689028293 1283.729175000 1465.661525399 1029.275826074 1373.845019205 1579.266140589 1308.531781698 1311.707088604 999.407508783 1727.299610829 1703.464894831 1762.092492620 1662.713578268 1181.228874076 1259.389349465 1087.403005969 1473.500956273 990.919925176 1563.908876680 1258.683917660 912.090634301 1297.677002416 1788.324755236 1660.899997983 1659.574856289 1675.934453386 1573.206009898 1347.529357482 1312.935795191 1087.846809623 1154.186885424 1028.442156993 1503.551039287 846.613086132 1219.827021254 932.577734025 1267.915064848 1436.260728032 1446.530943751 1307.149100971 1425.939772103 1237.598469538 1057.021845970 674.368276258 919.004745722 1243.068219557 1000.432449525 1139.657338692 1122.900113010 373.845050190 709.516971696 1258.964745505 1427.165766590 1247.499840570 649.714106027 1044.625099319 678.683879736 821.493640014 954.068601076 103.025952417 1162.651059201 716.906933607 117.149505575 623.422254137 1056.434442200 865.403668344 1172.997062586 1277.959816739 1176.239792454 772.503434142 985.275850563 772.809677067 158.948079978 231.507523179 230.607461983 699.277390985 127.932404067 214.560471635 381.558367300 1386.397353862 1234.855523284 1178.251906756 1220.846250452 1243.870828498 260.071966885 700.931230758 93.102252678 488.275069049 282.055794685 269.939913520 1199.501263256 862.170288958 1155.388682768 1151.240286265 220.739367940 207.461547905 910.265564256 717.643064930 255.593473389 572.309726980 300.577858498 319.763636758 1002.989023103 1053.820611762 1087.339582873 870.789716540 448.637266507 75.787134286 279.628734536 165.276459660 352.263996040 837.781573355 308.687956058 331.394251262 510.102829528 214.724975164 125.255917038 311.940757450 179.880287497 660.022114190 417.169282789 504.775370715 953.031786694 1186.684186373 856.013768019 399.606497640 40.442928082 93.356820489 151.279835825 672.758214802 673.338271113 64.324310980 985.808074110 324.128428432 853.794380543 760.921860979 904.812810789 136.003116610 658.269151101 810.285376378 863.517653178 60.209760849 137.922538602 1127.602117182 175.305120197 819.936587601 221.370274417 818.197887598 157.751254030 927.612449082 614.151130095 919.872471788 882.690314436 180.346118887 147.876361652 145.048414403 280.831224698 827.874750435 260.529270005 79.141330025 717.644020263 250.634022085 116.814826361 101.418004146 152.767752444 496.946624616 908.787382528 162.641776691 63.811557748 269.930257004 570.528208213 155.996362639 173.790080275 194.110793250 94.630867132 -0.416452269 946.326886532 929.450777865 851.606613127 882.221520010 315.835706709 266.702369414 371.363476975 291.492900362 398.548954454 998.672436133 855.309488471 892.524036633 883.368962034 340.195209743 249.816849190 279.688299802 264.566252498 855.311499782 828.756239457 743.294254109 789.571865558 286.770903574 312.795953440 356.805877732 345.848274625 679.762611652 731.322189430 301.506789961 790.770164683 716.885242315 581.126693525 585.194664815 525.131252826 414.210963855 392.739334307 
    </DataArray>
    <DataArray Name="Density" type="Float32" Format="ascii">
    2040.495301908 2040.298846705 2040.437725407 2040.140707372 2040.352477079 2040.427961306 2040.157183613 2040.219486355 2056.004109007 2049.187886775 2040.068491185 2040.192950939 2040.053753630 2040.326194422 2040.337613108 2039.977868077 2040.049721836 2040.087170690 2040.012824895 2040.036845265 2064.942526102 2061.480457113 2075.986751651 2075.245067091 2074.060766098 2040.024394689 2039.996209321 2039.999667394 2040.019378974 2039.937676114 2040.030123454 2039.988524889 2040.019459679 2039.973136648 2076.539220813 2069.080884144 2054.990727876 2077.909963477 2070.223149623 2051.601678562 2039.937204300 2039.994965372 2053.972072988 2039.860821105 2040.007792744 2049.317797193 2040.086953161 2040.056174188 2079.046045491 2058.024868138 2110.216926427 2040.162482170 2040.000027751 2040.152166117 2039.977847976 2040.005571833 2068.620876299 2040.008641035 2039.960996945 2040.285884753 2049.093831211 2104.735858047 2132.026446330 2077.978379445 2107.776382176 2112.616300385 2040.323611708 2039.915647191 2041.922843072 2055.991855395 2040.078124415 2039.767450177 2092.038178706 2039.862144111 2039.796757203 2040.392082922 2051.942760445 2085.594330707 2040.348693521 2040.196373315 2040.076001856 2040.113125327 2040.149358048 2039.856516278 2039.841955104 2122.326064005 2039.700784581 2039.514195158 2135.895746922 2154.423406392 2040.181864429 2040.088099606 2040.030880280 2141.668430445 2040.105522743 2129.163153002 2202.928223633 2039.788431819 2040.873409255 2039.658029744 2193.271174107 2040.742617094 2126.658727081 2039.917195562 2134.943079857 2061.949785919 2039.213795377 2040.208560909 2167.919353558 2039.629471313 2044.757513497 2040.952787584 2040.422510035 2040.530827624 2039.723004094 2041.251808036 2040.553828996 2040.168600352 2039.528266346 2040.213560838 2039.945716615 2039.681879634 2039.833079790 2040.796664429 2039.735449409 2040.911160407 2040.482169207 2040.595113707 2040.282738079 2039.930898791 2039.896367025 2039.884668601 2039.802998253 2040.616918407 2040.589595344 2039.837518801 2039.832152459 2040.697636597 2040.566160948 2040.562476476 2040.287827451 2040.159647650 2040.035894309 2039.941197730 2039.961355956 2040.250350100 2040.959662469 2040.489537479 2040.993328315 2040.226867363 2039.352772814 2040.383714290 2040.297051589 2040.087991032 2040.325410462 2040.332118725 2040.050876504 2040.280058474 2040.022047493 2040.079283609 2039.981847381 2040.002319682 2048.072773134 2042.892182935 2076.347174332 2040.482143184 2040.338170544 2059.854525705 2141.738837892 2073.031438562 2040.926002311 2039.891326893 2177.963531187 2042.694640811 2077.451755501 2040.250941058 2040.521476368 2134.108240285 2124.033739159 2044.241502181 2059.720003260 2040.580962419 2042.660646446 2040.276987495 2082.727854797 2063.140837339 2162.597823212 2040.639639081 2039.641960268 2076.785874442 2170.965627247 2062.204061687 2232.308704491 2052.325127153 2040.679268985 2218.152277376 2125.659104551 2118.733620872 2040.891283063 2129.192581275 2040.157643211 2040.700419761 2040.850861365 2040.789235325 2216.091126583 2124.511716810 2040.536883504 2121.044444122 2278.977877220 2242.196906487 2040.569229861 2040.453109415 2040.417593003 2040.878586834 2049.576497724 2039.856490195 2040.098326872 2040.080166264 2040.078249285 2040.467404574 2040.547475449 2040.501477650 2040.694340722 2040.275266430 2039.592585778 2040.178470268 2039.897543999 2039.955432530 2040.375948973 2040.545316135 2040.597290899 2040.570527218 2040.023300079 2040.088612622 2040.188155639 2040.166040697 2040.515502388 2040.476912882 2040.364454518 2040.411352830 2040.363330615 2040.266228781 2040.579319242 2040.213219244 2040.420001916 2040.385623517 2040.486611960 2040.348749100 2040.633963575 2040.578616571 
    </DataArray>
    <DataArray Name="Velocity" type="Float32"  NumberOfComponents="3" Format="ascii">