<?xml version="1.0"?>
<VTKFile type="PolyData" version="0.1" byte_order="LittleEndian">
 <PolyData>
  <Piece Name ="SoilBlock" NumberOfPoints="250" NumberOfVerts="250">
   <Points>
    <DataArray Name="Position" type="Float32"  NumberOfComponents="3" Format="ascii">
    1.71116 0.511602 0 1.69006 0.509405 0 1.74917 0.508769 0 1.73141 0.510454 0 1.7467 0.536485 0 1.72439 0.52963 0 1.79584 0.508236 0 1.77408 0.50758 0 1.83711 0.509114 0 1.8168 0.508637 0 1.77032 0.548974 0 1.79014 0.553183 0 1.79944 0.528973 0 1.76071 0.525834 0 1.78139 0.52924 0 1.81986 0.528647 0 1.83002 0.550267 0 1.81048 0.548222 0 1.83961 0.53026 0 1.89731 0.509075 0 1.8572 0.508766 0 1.87744 0.509291 0 1.9367 0.509277 0 1.91697 0.509562 0 1.87959 0.529765 0 1.89309 0.549565 0 1.85917 0.528944 0 1.85208 0.549566 0 1.87146 0.549116 0 1.92054 0.529483 0 1.93283 0.549694 0 1.91252 0.548925 0 1.89953 0.529413 0 1.94088 0.529504 0 1.97575 0.50964 0 1.95643 0.509459 0 2.0147 0.509873 0 1.99531 0.509463 0 2.0334 0.509907 0 1.97345 0.548808 0 1.9522 0.549254 0 1.96144 0.529682 0 1.98261 0.529534 0 1.99185 0.550314 0 2.03098 0.552721 0 2.0251 0.530444 0 2.00307 0.529385 0 2.01296 0.54735 0 2.07115 0.512462 0 2.05363 0.508694 0 2.10951 0.51288 0 2.09004 0.507076 0 2.12737 0.507987 0 2.06791 0.532128 0 2.07152 0.554375 0 2.04553 0.528507 0 2.0508 0.545403 0 2.1115 0.553663 0 2.08754 0.545431 0 2.09109 0.527173 0 2.11032 0.53395 0 2.14812 0.510793 0 2.16716 0.508445 0 2.18719 0.511089 0 2.20422 0.509313 0 2.15175 0.533911 0 2.1327 0.526827 0 2.15266 0.553013 0 2.17061 0.527054 0 2.12987 0.545875 0 2.1899 0.55086 0 2.17528 0.546422 0 2.21797 0.529636 0 2.21362 0.545599 0 2.19452 0.530321 0 2.24189 0.509619 0 2.22346 0.509572 0 2.26181 0.509104 0 2.30302 0.509572 0 2.28192 0.509189 0 2.24631 0.545803 0 2.24073 0.529664 0 2.26362 0.556851 0 2.26197 0.529346 0 2.22844 0.558004 0 2.29678 0.529725 0 2.29864 0.551074 0 2.28034 0.55503 0 2.27863 0.533526 0 2.3239 0.509529 0 2.34784 0.509308 0 2.40277 0.506636 0 2.37469 0.508191 0 2.35729 0.541237 0 2.33677 0.526597 0 2.35568 0.56269 0 2.33952 0.54799 0 2.32018 0.551224 0 2.31752 0.531343 0 2.36317 0.524303 0 2.37888 0.543358 0 2.39415 0.557506 0 2.39642 0.538338 0 2.37559 0.562257 0 2.38866 0.521912 0 2.42981 0.505385 0 2.45598 0.507981 0 2.49566 0.51275 0 2.47638 0.513333 0 2.42857 0.552348 0 2.446 0.548241 0 2.42225 0.535913 0 2.4403 0.52097 0 2.4101 0.552982 0 2.41609 0.520447 0 2.45577 0.535214 0 2.4857 0.542881 0 2.47296 0.535902 0 2.53557 0.51199 0 2.51589 0.51324 0 2.58168 0.509465 0 2.5555 0.509354 0 2.54187 0.535083 0 2.51512 0.535723 0 2.52753 0.547521 0 2.49966 0.541768 0 2.56878 0.525715 0 2.57599 0.547847 0 2.55791 0.542178 0 2.63299 0.508883 0 2.60557 0.509392 0 2.66351 0.509868 0 2.59946 0.544708 0 2.59397 0.528754 0 2.62056 0.542706 0 2.61988 0.524452 0 2.67549 0.541749 0 2.65831 0.538502 0 2.63906 0.542746 0 2.64907 0.520199 0 2.7051 0.508952 0 2.6832 0.510307 0 2.72371 0.515906 0 2.76345 0.510019 0 2.7411 0.509143 0 2.70532 0.534131 0 2.72007 0.540888 0 2.68863 0.530625 0 2.74005 0.537997 0 2.75494 0.530264 0 1.80745 0.567928 0 1.84387 0.567815 0 1.85024 0.588997 0 1.82791 0.574808 0 1.8702 0.594584 0 1.88283 0.567037 0 1.86449 0.572138 0 1.88883 0.607616 0 1.88881 0.586801 0 1.9037 0.571289 0 1.92231 0.568098 0 1.93075 0.585777 0 1.9252 0.605479 0 1.90881 0.591966 0 1.90902 0.61459 0 1.93126 0.627209 0 1.94932 0.592497 0 1.96681 0.603103 0 1.96357 0.56684 0 1.96989 0.584952 0 1.94432 0.570577 0 1.98536 0.571632 0 2.02727 0.593312 0 2.01035 0.584556 0 1.99057 0.592817 0 2.02727 0.571548 0 2.00208 0.605046 0 2.00495 0.56633 0 1.9442 0.612177 0 1.95437 0.629384 0 1.96934 0.620471 0 1.98295 0.615576 0 2.00348 0.622391 0 2.02289 0.612749 0 2.06111 0.59994 0 2.05024 0.565473 0 2.04595 0.584421 0 2.06752 0.574171 0 2.07527 0.598615 0 2.05154 0.609033 0 2.11512 0.603776 0 2.12467 0.580971 0 2.09384 0.56406 0 2.10768 0.576629 0 2.09239 0.608913 0 2.10201 0.594865 0 2.08361 0.58242 0 2.03799 0.610921 0 2.16434 0.598894 0 2.13198 0.599911 0 2.14787 0.59703 0 2.14799 0.578702 0 2.16498 0.566199 0 2.13354 0.564239 0 2.20589 0.593111 0 2.17601 0.579571 0 2.19184 0.575745 0 2.2029 0.56456 0 2.17756 0.596754 0 2.21821 0.575288 0 2.24224 0.585029 0 2.24572 0.567768 0 2.25398 0.581993 0 2.22612 0.589374 0 2.27931 0.575276 0 2.29444 0.570648 0 2.32705 0.569571 0 2.31227 0.570781 0 2.34546 0.567683 0 2.78411 0.509262 0 2.80772 0.507659 0 2.85218 0.510112 0 2.83049 0.513436 0 2.78863 0.531786 0 2.80596 0.52887 0 2.77217 0.536699 0 2.82328 0.536915 0 2.84613 0.536176 0 2.90189 0.510022 0 2.87708 0.509411 0 2.95172 0.510292 0 2.92644 0.510428 0 2.88578 0.531325 0 2.90722 0.53251 0 2.86573 0.530492 0 2.93141 0.532059 0 2.97794 0.509551 0 3.04085 0.50626 0 3.00606 0.507927 0 2.95716 0.53184 0 2.98356 0.529878 0 3.031 0.522659 0 3.00904 0.528947 0 3.08177 0.512625 0 3.10593 0.516916 0 3.12843 0.510123 0 3.06075 0.521547 0 3.17672 0.506506 0 3.15334 0.516049 0 3.20675 0.508403 0 
    </DataArray>
   </Points>
   <PointData  Vectors="vector">
    <DataArray Name="SortedParticle_ID" type="Int32" Format="ascii">
    0 1 2 3 4 5 6 7 8 9 10 11 12 13 14 15 16 17 18 19 20 21 22 23 24 25 26 27 28 29 30 31 32 33 34 35 36 37 38 39 40 41 42 43 44 45 46 47 48 49 50 51 52 53 54 55 56 57 58 59 60 61 62 63 64 65 66 67 68 69 70 71 72 73 74 75 76 77 78 79 80 81 82 83 84 85 86 87 88 89 90 91 92 93 94 95 96 97 98 99 100 101 102 103 104 105 106 107 108 109 110 111 112 113 114 115 116 117 118 119 120 121 122 123 124 125 126 127 128 129 130 131 132 133 134 135 136 137 138 139 140 141 142 143 144 145 146 147 148 149 150 151 152 153 154 155 156 157 158 159 160 161 162 163 164 165 166 167 168 169 170 171 172 173 174 175 176 177 178 179 180 181 182 183 184 185 186 187 188 189 190 191 192 193 194 195 196 197 198 199 200 201 202 203 204 205 206 207 208 209 210 211 212 213 214 215 216 217 218 219 220 221 222 223 224 225 226 227 228 229 230 231 232 233 234 235 236 237 238 239 240 241 242 243 244 245 246 247 248 249 
    </DataArray>
    <DataArray Name="OriginalID" type="Int32" Format="ascii">
    1 0 4 2 5 3 9 6 16 12 8 11 13 7 10 17 18 14 21 30 20 25 42 36 31 32 26 22 27 43 44 38 37 50 56 49 72 64 81 58 51 57 65 66 83 82 73 74 100 90 120 110 130 101 102 91 92 122 112 111 121 140 150 160 169 141 131 142 151 132 162 152 170 171 161 186 178 194 208 201 188 179 196 187 180 202 203 204 195 214 220 230 225 221 215 182 217 216 209 226 227 106 235 98 238 234 242 197 126 173 99 232 236 145 241 107 108 155 128 127 156 191 136 231 117 210 190 109 174 183 138 157 118 166 146 137 129 211 119 222 184 167 205 223 212 175 139 165 147 148 15 23 24 19 29 33 28 35 34 39 45 46 47 40 41 48 53 61 59 60 52 67 85 76 68 84 77 75 54 55 62 69 63 70 95 93 94 103 104 86 79 134 113 123 71 115 114 78 105 87 96 143 153 133 80 154 163 172 124 181 97 189 135 88 89 144 125 116 164 239 244 176 159 198 228 149 158 168 218 199 213 200 206 177 192 185 233 246 240 193 207 224 219 237 243 245 229 248 247 249 
    </DataArray>
    <DataArray Name="ErodedLabel" type="Int32" Format="ascii">
    0 1 1 0 0 0 0 0 0 0 0 0 0 0 0 0 0 0 0 0 0 0 0 0 0 0 0 0 0 0 0 0 0 0 0 0 0 0 0 0 0 0 0 0 0 0 0 0 0 0 0 0 0 0 0 0 0 0 0 0 0 0 0 0 0 0 0 0 0 0 0 0 0 0 0 0 0 0 0 0 1 0 1 0 0 0 1 1 0 0 0 0 0 1 0 1 1 1 0 0 1 1 1 1 0 0 1 1 1 1 1 1 1 1 1 1 1 1 1 1 1 1 1 1 1 1 1 1 1 1 1 1 1 1 1 1 1 1 0 1 1 1 1 1 1 1 1 1 1 1 0 0 0 0 0 0 0 0 0 0 0 0 0 0 0 0 0 1 0 0 0 0 1 0 1 0 1 0 1 1 1 1 1 1 1 0 1 0 1 1 1 1 0 1 1 1 1 1 1 1 1 1 1 0 1 1 1 1 1 1 1 1 1 1 1 1 1 1 1 1 1 1 1 1 1 1 1 0 1 1 1 1 1 1 1 1 1 1 1 1 1 1 1 1 1 1 0 1 1 1 
    </DataArray>
    <DataArray Name="Indicator" type="Int32" Format="ascii">
    1 1 0 1 1 1 0 0 0 0 1 1 0 1 1 0 0 1 0 0 0 0 0 0 0 0 0 0 0 0 0 0 0 0 0 0 0 0 0 0 0 0 0 0 0 0 0 0 0 0 0 0 0 0 0 0 0 0 0 0 0 0 0 0 0 0 0 0 0 0 0 0 0 0 0 0 0 0 0 0 0 0 0 0 0 0 1 1 0 0 0 0 0 1 0 1 1 1 0 0 1 1 1 1 0 0 0 0 1 1 1 1 0 1 0 1 1 1 0 1 0 0 1 1 1 1 1 1 1 0 0 0 1 1 1 1 1 1 1 1 0 1 0 1 0 1 1 1 1 1 1 1 1 1 1 0 1 1 1 0 0 0 1 1 1 1 0 1 0 0 0 0 1 0 0 0 1 0 1 1 1 1 1 1 1 0 0 0 1 1 1 1 0 0 1 1 0 1 1 1 1 1 0 0 1 1 1 0 1 1 1 1 1 1 1 1 1 1 1 1 1 0 0 1 1 1 1 1 0 0 1 1 1 1 1 1 1 1 1 1 1 1 1 1 1 1 1 1 1 1 
    </DataArray>
    <DataArray Name="VerticalStress" type="Float32" Format="ascii">
    -811.881003068 -972.492620204 -950.890080791 -746.607963352 -480.499691705 -475.918012132 -1232.667737059 -1061.400049050 -1985.997611536 -1655.402728612 -567.432170982 -707.711905228 -1279.599191339 -890.442413929 -1121.902113255 -1261.485321657 -851.184976460 -1014.535502952 -1142.181154618 -2380.763138124 -2218.400281613 -2307.574933402 -2404.240023686 -2432.889601558 -1703.359984817 -1328.309703240 -1346.642123767 -840.666787572 -1083.065974291 -2047.993780020 -1579.872405726 -1434.037121867 -1980.782322291 -2171.004030565 -2454.397012869 -2388.057741635 -2463.584664136 -2559.720743498 -2308.228585717 -1901.402115570 -1904.296723952 -2269.947771611 -2056.057454615 -1596.525891778 -1674.775365582 -2066.932103831 -2002.795673422 -1604.933062574 -2140.412934673 -2308.473229987 -2242.193744172 -2457.116349984 -2262.756186224 -1791.080620796 -1314.232928633 -1912.956178036 -1533.829589124 -1324.650399466 -1583.755087785 -1913.130343017 -1979.053590041 -2157.363786937 -2187.772203999 -2039.743749214 -2001.486702201 -1705.252532926 -1863.213679090 -1048.118056361 -1364.929956231 -1605.376545872 -1277.206160534 -1358.854320825 -1655.088293825 -1322.264722515 -1668.141116933 -2370.709405342 -2023.138922481 -2096.510382486 -1631.293593849 -1745.182399129 -1286.085214300 -2007.039591393 -728.164918899 -1369.341433211 -1079.662063645 -1339.563170433 -998.362664412 -377.701932604 -1187.076630134 -1910.515329634 -1642.098183203 -1370.816764484 -1680.595592277 -1099.711265827 -1200.218142310 -27.014848613 -587.578951654 -896.693275500 -1210.810452512 -1136.858805185 -393.021762606 -169.543308833 -683.538082182 -224.353541723 -1461.662408410 -1314.016226559 -1111.407987777 -1243.040933591 -1274.515135131 -139.595833186 -172.588640991 -765.545395953 -831.064810512 -137.977044586 -995.225278097 -609.353041419 -257.135720053 -433.100531499 -1098.577632423 -1342.497022240 -1257.303329413 -1189.278311715 -687.165099864 -481.715728886 -149.091951837 -348.786605175 -867.666841296 -252.196332922 -79.586661990 -1254.303731253 -1221.369453729 -1101.691738316 -251.685224500 -500.367899790 -204.355135204 -709.994193502 -305.460599643 -327.187610659 -276.207979431 -747.588975546 -1087.489339860 -987.085937406 -936.964051947 -951.986331431 -1021.531283265 -215.322697728 -292.867699309 -500.897375809 -261.878248534 -405.550032411 -562.743917674 -815.171777416 -599.101159849 -540.648812431 -660.062338042 -1065.265191111 -1006.893700739 -580.425172560 -971.098902748 -895.519125457 -917.225456484 -761.178582088 -781.204271221 -878.001094359 -529.271006648 -441.015333461 -816.875409748 -634.322775575 -1433.743145683 -1044.256496080 -1111.686236819 -1285.324984115 -676.640968108 -1104.894008273 -853.806126113 -1219.183422321 -434.020193782 -1210.560496990 -538.078993558 -216.960208141 -152.555545067 -201.595359604 -223.023235544 -172.333861890 -557.710505149 -1024.947567895 -738.766519323 -1125.733727848 -176.666668405 -151.260942592 -210.972978896 -758.598821230 -1244.801538241 -998.190397108 -318.315432151 -48.141399292 -822.759196651 -192.093500993 -150.037674899 -123.215188419 -138.393811984 -779.168105822 -984.131057143 -1084.938696776 -308.926179776 -702.003560898 -590.218036919 -688.462694148 -61.873065919 -4.818663011 19.460401822 -1186.227808466 109.676378524 -312.069342069 -154.469962024 -58.882794214 3.801478955 21.685070242 -75.623576859 -894.124951968 -917.572940455 -932.444969182 -1003.986171841 -362.202161389 -377.208237012 -263.499435665 -271.055344632 -334.675566328 -888.473442000 -935.047357305 -847.621865655 -869.734490550 -295.376813173 -346.363801089 -350.944400178 -350.316818055 -834.051845628 -724.403121373 -798.883014604 -388.430433231 -404.842051192 -429.521968181 -421.616310334 -741.198781552 -585.693091180 -549.034882417 -591.927723869 -399.155227587 -539.183303704 -387.600591573 
    </DataArray>
    <DataArray Name="FrictionAngle" type="Float32" Format="ascii">
    0.523598776 0.523598776 0.009689363 0.523598776 0.523598776 0.523598776 0.523598776 0.523598776 0.523598776 0.523598776 0.523598776 0.523598776 0.523598776 0.523598776 0.523598776 0.523598776 0.270095325 0.523598776 0.523598776 0.523598776 0.523598776 0.523598776 0.523598776 0.523598776 0.523598776 0.523598776 0.523598776 0.523598776 0.523598776 0.523598776 0.523598776 0.523598776 0.523598776 0.523598776 0.523598776 0.523598776 0.523598776 0.523598776 0.523598776 0.523598776 0.523598776 0.523598776 0.523598776 0.523598776 0.523598776 0.523598776 0.523598776 0.523598776 0.523598776 0.523598776 0.523598776 0.523598776 0.523598776 0.523598776 0.523598776 0.523598776 0.523598776 0.523598776 0.523598776 0.523598776 0.523598776 0.523598776 0.523598776 0.523598776 0.523598776 0.523598776 0.523598776 0.523598776 0.523598776 0.523598776 0.523598776 0.523598776 0.523598776 0.523598776 0.523598776 0.523598776 0.523598776 0.523598776 0.523598776 0.523598776 0.523598776 0.523598776 0.017974185 0.523598776 0.319478833 0.523598776 0.007605626 0.000833593 0.523598776 0.523598776 0.523598776 0.523598776 0.523598776 0.002753562 0.523598776 0.000611899 0.000007283 0.002153879 0.523598776 0.523598776 0.000039413 0.000937481 0.000593747 0.000981893 0.389579012 0.523598776 0.003784792 0.000670365 0.000712129 0.000507267 0.000796207 0.000380873 0.000015710 0.000437326 0.125526975 0.000828948 0.000724994 0.000721699 0.000920413 0.000853109 0.001108477 0.000379880 0.000833573 0.000923972 0.000841564 0.001148979 0.000866938 0.000816379 0.000561671 0.001164112 0.001040831 0.000645832 0.000377530 0.000660226 0.000783538 0.000670188 0.000805121 0.000072880 0.000743281 0.000768397 0.001397207 0.001231657 0.000866326 0.001513667 0.001677197 0.000884560 0.000870550 0.000980959 0.000942508 0.000968619 0.523598776 0.523598776 0.523598776 0.523598776 0.523598776 0.523598776 0.523598776 0.523598776 0.514882671 0.523598776 0.523598776 0.523598776 0.492343848 0.386449729 0.518908176 0.299408939 0.523598776 0.024308819 0.523598776 0.523598776 0.523598776 0.523598776 0.002553970 0.523598776 0.117646771 0.523598776 0.015455152 0.523598776 0.059491405 0.025871799 0.020488546 0.008322159 0.009873329 0.007212219 0.004186942 0.523598776 0.006696807 0.309940416 0.004821558 0.005662156 0.002844514 0.003474717 0.523598776 0.075093823 0.004332163 0.001989163 0.001073570 0.003621556 0.001327514 0.002461119 0.002410523 0.003031580 0.067219281 0.523598776 0.002199055 0.002985304 0.002755748 0.007178158 0.002326941 0.000136737 0.001433025 0.001543308 0.001521439 0.001549757 0.001501375 0.001478896 0.000588583 0.000890850 0.000925257 0.000645613 0.005082853 0.000196620 0.000982109 0.000411097 0.001010303 0.000856632 0.001189929 0.001056482 0.000119596 0.000189707 0.001393405 0.000585829 0.001328530 0.001301732 0.001129040 0.001310829 0.001583753 0.002112666 0.001665501 0.001466871 0.001438620 0.001651525 0.001444071 0.002465979 0.002860930 0.001809585 0.001721638 0.001373871 0.001199498 0.000976965 
    </DataArray>
    <DataArray Name="Cohesion" type="Float32" Format="ascii">
    400.000000000 400.000000000 6.713197749 400.000000000 400.000000000 400.000000000 400.000000000 400.000000000 400.000000000 400.000000000 400.000000000 400.000000000 400.000000000 400.000000000 400.000000000 400.000000000 191.814765006 400.000000000 400.000000000 400.000000000 400.000000000 400.000000000 400.000000000 400.000000000 400.000000000 400.000000000 400.000000000 400.000000000 400.000000000 400.000000000 400.000000000 400.000000000 400.000000000 400.000000000 400.000000000 400.000000000 400.000000000 400.000000000 400.000000000 400.000000000 400.000000000 400.000000000 400.000000000 400.000000000 400.000000000 400.000000000 400.000000000 400.000000000 400.000000000 400.000000000 400.000000000 400.000000000 400.000000000 400.000000000 400.000000000 400.000000000 400.000000000 400.000000000 400.000000000 400.000000000 400.000000000 400.000000000 400.000000000 400.000000000 400.000000000 400.000000000 400.000000000 400.000000000 400.000000000 400.000000000 400.000000000 400.000000000 400.000000000 400.000000000 400.000000000 400.000000000 400.000000000 400.000000000 400.000000000 400.000000000 400.000000000 400.000000000 12.454222154 400.000000000 229.192655677 400.000000000 5.269433573 0.577530094 400.000000000 400.000000000 400.000000000 400.000000000 400.000000000 1.907728317 400.000000000 0.423936253 0.005045691 1.492253628 400.000000000 400.000000000 0.027306442 0.649506137 0.411360015 0.680275822 284.446307020 400.000000000 2.622193201 0.464442341 0.493377811 0.351445191 0.551628810 0.263876797 0.010884198 0.302988057 87.427320490 0.574312441 0.502290344 0.500007998 0.637681043 0.591051242 0.767975908 0.263188864 0.577516229 0.640146545 0.583053032 0.796036685 0.600632583 0.565603796 0.389137425 0.806521058 0.721109380 0.447445692 0.261560270 0.457417813 0.542851412 0.464320229 0.557804498 0.050492729 0.514960346 0.532361035 0.968014366 0.853317420 0.600208382 1.048700111 1.161997601 0.612841367 0.603135036 0.679628560 0.652988653 0.671078887 400.000000000 400.000000000 400.000000000 400.000000000 400.000000000 400.000000000 400.000000000 400.000000000 391.988520275 400.000000000 400.000000000 400.000000000 371.630622716 281.916070799 395.678681057 213.865838888 400.000000000 16.844962262 400.000000000 400.000000000 400.000000000 400.000000000 1.769445860 400.000000000 81.886212044 400.000000000 10.708496234 400.000000000 41.265548851 17.928508703 14.196867731 5.765894192 6.840665173 4.996858234 2.900815545 400.000000000 4.639753029 221.883889262 3.340499299 3.922898788 1.970742408 2.407364420 400.000000000 52.124541757 3.001429643 1.378134331 0.743791315 2.509098753 0.919729559 1.705116370 1.670062468 2.100346952 46.641153708 400.000000000 1.523552592 2.068285468 1.909243032 4.973259245 1.612154895 0.094734451 0.992829210 1.069236271 1.054084528 1.073704232 1.040183721 1.024610141 0.407782254 0.617199268 0.641037117 0.447294019 3.521534253 0.136222447 0.680425207 0.284816216 0.699958356 0.593492215 0.824407697 0.731952214 0.082858303 0.131432767 0.965380037 0.405874060 0.920433405 0.901866835 0.782222322 0.908169511 1.097257169 1.463699775 1.153894033 1.016278780 0.996706153 1.144210930 1.000482340 1.708484055 1.982115601 1.253718713 1.192786978 0.951846364 0.831036803 0.676861479 
    </DataArray>
    <DataArray Name="Pressure" type="Float32" Format="ascii">
    867.718142083 844.882237962 1046.968490642 836.092942655 443.808707539 574.867666966 1368.246123240 1367.227916826 1301.565997837 1318.399064047 428.753072696 379.780978351 736.199794547 720.819804148 692.015154929 1004.407557661 810.907167510 496.452201550 1325.015382054 1544.845569071 1375.397056214 1448.886430443 1786.865254803 1675.363933820 1246.522513292 1055.068674552 1418.431881264 1118.511390298 1042.006771375 1424.105825122 1261.935640228 1282.750272851 1264.288680499 1385.437258608 1790.314788614 1812.513474626 1717.144627118 1794.448272298 1699.987322087 1063.532899243 1033.623431716 1351.723413233 1514.155114899 1371.887029013 1071.215224949 1410.794893373 1671.215090233 1426.041379095 1663.254278374 1759.901395425 1655.843662433 1833.064962451 1759.141360270 1474.358996751 1180.841497722 1278.279074287 979.994347203 941.340705872 1437.242190626 1544.700754235 1266.556250167 1649.916133027 1632.087933746 1506.414975507 1411.427218854 1379.889628275 1225.174658672 1069.746914506 1284.076797257 1100.890505856 827.741324750 1167.072217847 1141.230893529 946.909961803 929.917088148 1531.444994964 1427.502540705 1443.842962027 1312.366507531 1300.359875477 814.863010195 1702.250933220 765.913666775 1264.993408033 792.015522010 917.675453206 900.674495694 306.062180468 868.974591055 1452.803276848 1414.069489445 1389.139987341 1491.901467240 1094.414639596 1118.017389604 44.332482072 691.231899302 966.793480897 1171.853057557 964.332818619 308.681314073 153.940623092 594.905482711 219.904566573 1021.918870721 1098.881989095 1123.690411556 1242.371816266 1272.249822318 116.594414088 160.857127091 693.966407023 814.996811150 116.862439262 826.953042673 596.667899801 256.276893768 431.221452216 1098.612750011 1342.565948974 1258.211528606 1189.800169612 688.555796125 482.219108515 150.208904156 349.279554448 867.892191647 251.327035122 80.586657178 1255.142168425 1221.848676109 1102.256788055 252.074476351 499.930891123 204.036877156 709.930484220 306.075175671 326.907394245 276.261188548 747.742714584 1087.931196494 987.639258253 937.206405001 951.278136365 1024.550350025 215.446380609 293.147175596 500.533688476 262.299099806 405.756104708 352.949801086 544.505836529 253.485188973 338.909644576 228.214284543 686.229068766 479.704907230 201.894824020 317.845853578 930.092039861 1245.000190234 946.686018974 358.045117446 513.222151224 81.491038257 82.238652998 771.668728569 635.315329038 761.799739704 743.553991987 1070.755464916 893.073875532 698.335919119 911.989128549 730.080213263 1023.405089064 422.630707201 1223.847203622 356.093694672 147.139326943 162.480410885 190.244945173 228.083324480 183.351443759 547.499536356 776.985482528 681.292501085 978.022826715 168.851463999 153.375366211 218.000105903 730.988958753 1169.524626733 952.149729573 319.188201036 75.018285083 901.824309204 200.056173763 142.020524408 103.770557405 110.168116317 770.732046422 966.207692742 924.437277358 338.825146285 675.798801359 599.710320543 652.769274709 60.027249992 45.109239014 -42.109109515 1195.712487215 -138.734408695 325.186484009 146.087976357 39.450449680 18.280864970 -17.998820878 100.575901296 892.928214460 916.793670393 931.527193531 1003.920412526 361.175711014 375.950962798 262.904180883 271.168006817 333.520060132 888.783613758 934.677962139 848.857016253 870.170065583 294.554209688 345.236729761 350.058744353 351.068745423 834.449917154 724.740500055 795.381848318 389.744494810 406.973270702 428.689088504 425.659472787 744.409096392 585.945481759 551.838718587 593.439196659 401.586064958 538.085558657 386.103448494 
    </DataArray>
    <DataArray Name="Density" type="Float32" Format="ascii">
    2040.349255871 2040.455625089 2040.145345287 2040.369285530 2040.474184129 2040.364518411 2040.210919899 2040.154927715 2049.210071447 2051.832959477 2040.347268482 2040.322813060 2040.063855954 2040.141664139 2040.070015076 2040.035035935 2040.052557017 2040.108376584 2040.001299532 2069.570128529 2061.226625328 2054.494264222 2070.386511525 2067.881704012 2040.020396589 2040.028969964 2039.980520411 2039.989950773 2040.064540213 2039.984234598 2040.057373460 2039.940675778 2039.998758231 2040.060803796 2075.180087423 2072.334083309 2075.925892674 2081.338371290 2079.408485111 2046.637409182 2047.332739115 2039.936061425 2040.094222197 2051.881311959 2039.926341313 2039.900411610 2039.895997351 2061.027551507 2055.191622200 2088.229310845 2040.155585337 2109.513995375 2094.771169718 2039.965316724 2040.152243714 2040.151311413 2040.313425040 2040.419898673 2040.643488842 2040.139481183 2039.924748237 2040.066302379 2104.831857021 2106.372292853 2113.763227220 2039.931748325 2040.377941780 2040.278418359 2040.540195552 2046.649270897 2090.481106080 2054.096371923 2039.940540907 2039.557341280 2040.572328975 2082.819660344 2088.275985576 2045.698720378 2040.321715064 2040.262904461 2041.137435138 2038.436618867 2039.585846294 2039.928332328 2039.875919573 2040.124689415 2097.885289575 2177.670210172 2040.113045603 2039.986812387 2040.014746625 2039.966171136 2039.842205295 2055.379278992 2040.353291139 2095.939675068 2170.766249556 2115.866797637 2039.840101913 2040.298044566 2132.887043391 2040.555484756 2174.208277721 2040.279922791 2039.705508789 2162.487794834 2040.156021576 2039.859465614 2039.504530349 2040.728329238 2040.767148663 2105.571286486 2040.061376931 2040.833079784 2048.620601561 2039.892665782 2040.698059149 2040.548510285 2040.262972261 2039.504184022 2039.816790699 2040.039195740 2039.587332046 2040.394431947 2040.780752236 2040.413333580 2039.491185803 2040.363421030 2041.252703250 2039.674217073 2039.763052821 2039.863564070 2040.427609556 2040.627785175 2040.664183151 2040.034912576 2040.395202664 2040.494008595 2040.468925587 2040.246497849 2039.789700416 2040.092619685 2039.703455297 2039.914605454 2039.966478156 2041.010338794 2040.335853353 2040.192403927 2040.590538938 2040.433492615 2040.298599579 2040.111221330 2040.336582879 2040.373827791 2040.281502238 2039.997831338 2040.029266003 2040.243853470 2040.110867433 2040.057677213 2044.184635856 2045.764739232 2039.977790184 2039.961493109 2040.434956794 2040.317588171 2039.919408765 2186.892625410 2051.422360230 2066.891183569 2039.987176809 2040.116926765 2129.412759060 2067.891570147 2065.375135532 2039.759580987 2137.732548278 2045.926132011 2055.210564422 2040.373142769 2040.632091627 2048.030702287 2040.257314951 2040.657762901 2223.605338066 2040.374507649 2039.880973355 2048.442677933 2109.285276516 2082.940040263 2040.347280213 2128.756146072 2042.212469764 2120.140014758 2039.984600005 2217.478174297 2111.742487152 2094.322909844 2040.572008938 2040.830679756 2040.796371471 2067.627373171 2045.373198695 2039.946909206 2040.072814792 2202.793070424 2153.542468661 2182.568671508 2040.972991470 2204.333546746 2156.168049897 2260.213675250 2041.608468517 2039.827966072 2040.443828612 2040.946981138 2041.011761761 2041.162787654 2040.691496116 2040.012405529 2040.088558643 2040.070635930 2039.670223044 2040.407786809 2040.532532145 2040.546704900 2040.539912344 2040.422451680 2040.025007166 2039.916225704 2040.139937127 2040.084942024 2040.598666843 2040.418182353 2040.518476881 2040.450711648 2040.164406387 2040.338930594 2040.188258423 2040.367269461 2040.366585208 2040.480035131 2040.278661320 2040.311137847 2040.395148722 2040.535376183 2040.288555837 2040.650571386 2040.328173820 2040.576094154 
    </DataArray>
    <DataArray Name="Velocity" type="Float32"  NumberOfComponents="3" Format="ascii">