<?xml version="1.0"?>
<VTKFile type="PolyData" version="0.1" byte_order="LittleEndian">
 <PolyData>
  <Piece Name ="SoilBlock" NumberOfPoints="250" NumberOfVerts="250">
   <Points>
    <DataArray Name="Position" type="Float32"  NumberOfComponents="3" Format="ascii">
    1.71098 0.510842 0 1.69019 0.509833 0 1.75076 0.508833 0 1.73037 0.509011 0 1.74959 0.533063 0 1.7289 0.529517 0 1.79224 0.509166 0 1.77195 0.508606 0 1.83304 0.50945 0 1.81335 0.509043 0 1.79128 0.552465 0 1.80541 0.52841 0 1.76649 0.529132 0 1.78683 0.530903 0 1.77053 0.54951 0 1.81112 0.548239 0 1.84508 0.528679 0 1.85184 0.54872 0 1.82603 0.530976 0 1.83042 0.551487 0 1.87382 0.509436 0 1.89455 0.509148 0 1.85385 0.508989 0 1.93453 0.509165 0 1.91408 0.509765 0 1.87178 0.551335 0 1.88401 0.528713 0 1.89281 0.548405 0 1.86495 0.530927 0 1.93258 0.548139 0 1.91188 0.551544 0 1.90449 0.530581 0 1.92409 0.528854 0 1.95397 0.509922 0 1.97437 0.509115 0 1.99337 0.510447 0 2.0326 0.510903 0 2.01385 0.508782 0 1.94471 0.530756 0 1.97269 0.547502 0 1.95195 0.551771 0 1.96424 0.52869 0 1.98537 0.531033 0 2.03172 0.552581 0 2.02631 0.531831 0 2.0053 0.528337 0 2.01186 0.546951 0 1.99132 0.55243 0 2.07105 0.512056 0 2.05303 0.508343 0 2.09069 0.507687 0 2.10945 0.512661 0 2.07046 0.553785 0 2.04592 0.528162 0 2.0524 0.546257 0 2.06806 0.531946 0 2.0892 0.527903 0 2.1111 0.532272 0 2.10937 0.55458 0 2.09029 0.545431 0 2.12728 0.546106 0 2.1674 0.508341 0 2.12801 0.507752 0 2.14871 0.511394 0 2.18784 0.51125 0 2.20571 0.508595 0 2.17023 0.545613 0 2.17244 0.527342 0 2.15115 0.533558 0 2.13298 0.527397 0 2.15035 0.553655 0 2.20814 0.545977 0 2.1881 0.553976 0 2.19354 0.532002 0 2.21519 0.528217 0 2.24606 0.508747 0 2.22657 0.510327 0 2.30605 0.510386 0 2.28657 0.509145 0 2.267 0.509708 0 2.24658 0.546896 0 2.23406 0.53188 0 2.25522 0.52775 0 2.22808 0.554739 0 2.25572 0.563912 0 2.30779 0.555907 0 2.27177 0.533837 0 2.29203 0.527738 0 2.29497 0.544074 0 2.27192 0.552959 0 2.34095 0.509548 0 2.32301 0.510474 0 2.38879 0.508743 0 2.36258 0.507982 0 2.32469 0.543229 0 2.3175 0.529946 0 2.34456 0.550844 0 2.34588 0.528374 0 2.38566 0.537161 0 2.36366 0.554974 0 2.39995 0.558331 0 2.38604 0.560091 0 2.36169 0.535656 0 2.37692 0.521563 0 2.43875 0.507913 0 2.42095 0.515672 0 2.40935 0.510227 0 2.4624 0.51154 0 2.48256 0.513271 0 2.40398 0.531658 0 2.41165 0.548103 0 2.43519 0.554934 0 2.42855 0.539437 0 2.44271 0.527393 0 2.48992 0.534173 0 2.45385 0.552977 0 2.47598 0.544528 0 2.46199 0.532834 0 2.52529 0.512584 0 2.50341 0.510771 0 2.5461 0.512833 0 2.56774 0.507461 0 2.50471 0.538862 0 2.53279 0.53653 0 2.51841 0.536522 0 2.57919 0.536997 0 2.54942 0.542047 0 2.56436 0.528907 0 2.59129 0.51461 0 2.61392 0.513059 0 2.66165 0.511772 0 2.63697 0.512075 0 2.59922 0.5393 0 2.62093 0.536725 0 2.66243 0.532604 0 2.64258 0.535025 0 2.68645 0.506391 0 2.74675 0.511911 0 2.68248 0.530966 0 2.70534 0.520439 0 2.72628 0.518138 0 2.7665 0.52345 0 1.84962 0.588951 0 1.82988 0.573235 0 1.8084 0.568387 0 1.84742 0.567624 0 1.87117 0.593351 0 1.88628 0.566885 0 1.86717 0.572863 0 1.88866 0.608144 0 1.89022 0.586647 0 1.90714 0.572997 0 1.92623 0.567052 0 1.93069 0.586497 0 1.92813 0.606099 0 1.90923 0.593048 0 1.91063 0.613637 0 1.92935 0.628245 0 1.98739 0.572792 0 1.95085 0.593191 0 1.96736 0.605686 0 1.98953 0.593813 0 1.96604 0.566724 0 1.97089 0.585435 0 1.9465 0.572981 0 2.03086 0.593066 0 2.02734 0.573221 0 2.00834 0.604456 0 2.00736 0.566142 0 2.00973 0.585391 0 1.94746 0.613571 0 1.95126 0.633569 0 1.96874 0.647542 0 1.98853 0.633199 0 1.96972 0.625486 0 1.98866 0.613334 0 2.02701 0.613238 0 2.03065 0.63067 0 1.99146 0.653352 0 2.00892 0.625691 0 2.00864 0.645249 0 2.02828 0.652363 0 2.00964 0.667124 0 2.03331 0.67246 0 2.06888 0.572886 0 2.07034 0.594142 0 2.04779 0.604623 0 2.04688 0.566141 0 2.05105 0.584805 0 2.08845 0.58477 0 2.08997 0.565646 0 2.11087 0.573563 0 2.10936 0.593221 0 2.09121 0.604559 0 2.04606 0.643848 0 2.07178 0.633477 0 2.06793 0.651058 0 2.05082 0.624477 0 2.06792 0.612963 0 2.09174 0.647623 0 2.11114 0.613201 0 2.10577 0.634871 0 2.12599 0.625113 0 2.1103 0.649008 0 2.08856 0.623366 0 2.15257 0.594821 0 2.16968 0.565962 0 2.13112 0.603876 0 2.17071 0.606561 0 2.17212 0.582855 0 2.12843 0.584846 0 2.14897 0.576252 0 2.13344 0.564517 0 2.18743 0.593522 0 2.1945 0.573615 0 2.21151 0.565538 0 2.21252 0.584806 0 2.19905 0.604687 0 2.17215 0.624194 0 2.14933 0.635948 0 2.14888 0.614642 0 2.13647 0.63762 0 2.16363 0.633301 0 2.18935 0.631225 0 2.21751 0.614927 0 2.20375 0.622551 0 2.04638 0.664271 0 2.0745 0.660491 0 2.06304 0.675544 0 2.25063 0.609655 0 2.23591 0.57207 0 2.2601 0.59149 0 2.24187 0.586887 0 2.22489 0.598161 0 2.27604 0.603914 0 2.26718 0.609882 0 2.27144 0.578675 0 2.28627 0.565382 0 2.2901 0.588581 0 2.29809 0.603277 0 2.30615 0.573794 0 2.23573 0.619276 0 2.32969 0.586166 0 2.35806 0.573441 0 2.34236 0.581854 0 2.33047 0.564317 0 2.31277 0.590813 0 2.37426 0.574486 0 2.80496 0.508635 0 2.77788 0.507953 0 
    </DataArray>
   </Points>
   <PointData  Vectors="vector">
    <DataArray Name="SortedParticle_ID" type="Int32" Format="ascii">
    0 1 2 3 4 5 6 7 8 9 10 11 12 13 14 15 16 17 18 19 20 21 22 23 24 25 26 27 28 29 30 31 32 33 34 35 36 37 38 39 40 41 42 43 44 45 46 47 48 49 50 51 52 53 54 55 56 57 58 59 60 61 62 63 64 65 66 67 68 69 70 71 72 73 74 75 76 77 78 79 80 81 82 83 84 85 86 87 88 89 90 91 92 93 94 95 96 97 98 99 100 101 102 103 104 105 106 107 108 109 110 111 112 113 114 115 116 117 118 119 120 121 122 123 124 125 126 127 128 129 130 131 132 133 134 135 136 137 138 139 140 141 142 143 144 145 146 147 148 149 150 151 152 153 154 155 156 157 158 159 160 161 162 163 164 165 166 167 168 169 170 171 172 173 174 175 176 177 178 179 180 181 182 183 184 185 186 187 188 189 190 191 192 193 194 195 196 197 198 199 200 201 202 203 204 205 206 207 208 209 210 211 212 213 214 215 216 217 218 219 220 221 222 223 224 225 226 227 228 229 230 231 232 233 234 235 236 237 238 239 240 241 242 243 244 245 246 247 248 249 
    </DataArray>
    <DataArray Name="OriginalID" type="Int32" Format="ascii">
    1 0 4 2 5 3 9 6 16 12 11 13 7 10 8 14 21 22 17 18 25 30 20 42 36 27 31 32 26 44 38 37 43 49 56 64 81 72 50 58 51 57 65 83 82 73 74 66 100 90 110 120 102 91 92 101 111 121 122 112 132 150 130 140 160 169 152 151 141 131 142 171 162 161 170 186 178 208 201 194 188 179 187 180 189 210 195 202 203 196 220 214 230 225 216 209 227 215 231 222 198 157 221 226 241 238 234 242 184 235 228 158 232 236 176 159 168 167 223 212 239 244 192 206 199 185 177 218 200 213 240 233 193 207 224 219 246 245 229 237 243 247 24 19 15 23 29 33 28 35 34 39 45 46 47 40 41 48 67 53 61 68 59 60 52 85 84 77 75 76 54 55 63 70 62 69 86 87 71 78 79 88 80 89 103 104 95 93 94 114 113 123 124 115 97 106 107 96 105 117 125 126 136 109 116 144 153 135 155 154 134 143 133 164 163 172 173 174 166 127 145 118 146 119 137 128 98 108 99 156 181 191 190 182 175 165 197 204 205 139 211 129 147 183 148 217 138 149 249 248 
    </DataArray>
    <DataArray Name="ErodedLabel" type="Int32" Format="ascii">
    0 0 1 0 0 0 0 0 0 0 0 0 0 0 0 0 0 0 0 0 0 0 0 0 0 0 0 0 0 0 0 0 0 0 0 0 0 0 0 0 0 0 0 0 0 0 0 0 0 0 0 0 0 0 0 0 0 0 0 0 0 0 0 0 0 0 0 0 0 0 0 0 0 0 0 0 0 0 0 0 0 0 0 0 0 0 0 0 0 0 0 0 0 0 0 0 1 0 1 1 1 1 0 0 0 0 0 1 1 1 1 1 1 1 1 1 1 1 1 1 1 0 1 1 1 1 1 1 1 1 1 0 1 1 1 0 1 1 1 1 1 1 0 0 0 0 0 0 0 0 0 0 0 0 0 0 0 0 0 0 0 0 0 0 0 0 0 0 0 0 0 0 0 0 0 0 0 0 0 0 0 0 0 0 0 0 0 0 0 0 0 0 0 0 1 1 1 0 0 1 0 1 1 1 0 0 0 0 1 0 0 0 0 0 0 0 0 1 1 1 1 1 1 1 1 1 1 1 1 1 0 1 1 1 1 1 1 0 1 1 1 1 1 1 1 1 1 1 1 1 
    </DataArray>
    <DataArray Name="Indicator" type="Int32" Format="ascii">
    1 1 0 1 1 1 0 0 0 0 1 0 1 1 1 1 0 0 0 1 0 0 0 0 0 0 0 0 0 0 0 0 0 0 0 0 0 0 0 0 0 0 0 0 0 0 0 0 0 0 0 0 0 0 0 0 0 0 0 0 0 0 0 0 0 0 0 0 0 0 0 0 0 0 0 0 0 0 0 0 0 0 0 0 0 0 0 0 0 0 0 0 0 0 0 0 0 0 0 1 1 1 0 0 0 0 0 0 1 0 1 1 1 0 1 1 1 1 0 0 0 1 1 1 1 1 1 1 0 0 1 0 1 1 1 1 0 1 1 1 1 1 1 1 1 1 1 0 1 1 1 0 0 0 1 1 1 1 0 0 0 0 0 0 0 0 0 0 0 0 1 1 1 1 1 0 0 0 1 0 1 1 1 1 0 0 0 0 0 0 0 0 0 0 0 0 1 0 0 1 0 1 1 1 0 0 0 0 0 0 0 0 0 0 0 0 0 1 1 1 1 1 1 1 1 1 1 1 1 1 0 1 0 0 1 1 0 0 1 1 1 1 1 1 1 1 1 1 1 1 
    </DataArray>
    <DataArray Name="VerticalStress" type="Float32" Format="ascii">
    -389.313346722 -1101.669276994 -1030.786185563 -698.809210932 -305.021190942 -459.782903431 -1902.689296112 -1651.029642502 -1820.430288147 -1898.385056264 -247.131842719 -963.411993661 -492.847492751 -589.862857648 -64.349451092 -493.714222100 -1784.919288141 -1445.370927656 -1383.134933512 -846.182012156 -2102.019380864 -2365.099145000 -1853.595385777 -2813.341573928 -2679.225975774 -1542.667614296 -1985.837032105 -1624.666850387 -2017.249374881 -1804.502629262 -1636.351342398 -1956.779250381 -2081.438127470 -3007.093026742 -3033.343040520 -3155.408418773 -3183.860142228 -3076.347390685 -2283.942220052 -2076.879309243 -1924.338464157 -2512.420576174 -2700.415455709 -2486.361554731 -2873.944005879 -2807.179754550 -2519.036090050 -2120.894798826 -3115.699963240 -3205.331846567 -3259.889493014 -2979.985251195 -2371.124251050 -2898.447490940 -2565.166467077 -2786.331156295 -2695.367197756 -2642.290210123 -2242.808558347 -2366.472543020 -2274.603138736 -2910.781269687 -3126.969098206 -2947.031120470 -2664.002330722 -2565.226741887 -2027.032987928 -2589.463822291 -2471.206812384 -2624.940165589 -1856.378201471 -2071.999905021 -2046.261274301 -2318.779654085 -2284.028183254 -2456.546015121 -2655.253382036 -2431.233744631 -2421.012717567 -2293.739108500 -1633.569752500 -2133.281536626 -1937.154742427 -1709.014900244 -1230.300959537 -1543.520405877 -1606.331373446 -2160.174964122 -1746.698704916 -1374.414095605 -2065.094507312 -2346.070106113 -1609.153852394 -1969.332034663 -1465.086411328 -2291.535577085 -732.246413827 -1171.393841385 -822.272579954 -470.032818020 -155.296963288 -628.059228674 -1293.640673622 -1414.227326138 -1799.981229332 -1173.775350912 -1307.621204868 -1330.394031345 -1252.604815481 -477.112457466 -637.659612711 122.212161588 -1007.843611881 -657.344169102 -331.992762245 -391.378443121 -348.386457866 -321.708955170 -1327.947079408 -1231.585885301 -1063.588348256 -993.229352551 -283.690042329 -215.535219316 -237.511041735 -160.533087881 -319.760881613 -471.608926197 -1311.681967830 -1110.289892975 -1075.204985101 -1082.551053448 -235.807075516 -272.402302450 -154.185322402 -217.369298497 -769.344958425 -773.787446048 -290.101683461 -841.330025390 -794.358519203 -311.708854763 -124.339395401 -245.501352176 -304.170864675 -542.889140921 -166.963318407 -1032.045067199 -493.955665192 -221.478969306 -459.740226664 -1312.456677827 -1761.716001776 -1449.042389875 -501.261717313 -676.932888346 -142.727835934 -80.159588585 -1644.476684911 -1350.457260218 -1099.513729521 -1652.264203809 -1673.824766689 -1610.493361662 -1798.426274908 -1526.178625569 -1890.696564031 -1762.941436751 -1952.688919352 -1651.335791438 -413.205117135 -41.860446860 -47.777308751 -437.731055743 -436.957954364 -1322.784270615 -1698.659666158 -1072.202699784 86.491727869 -1278.946480493 -435.784001533 -507.373428851 46.138914151 -105.603940577 -2034.458963903 -1395.373050914 -1234.468880618 -2105.960517372 -1473.818518695 -1898.801879343 -2227.702781804 -2179.625654632 -1633.201394318 -1193.924825476 -1092.724619394 -978.758207394 -897.546815962 -1172.275387241 -1220.958064521 -84.203855193 -1065.711347369 -657.532378950 -464.917556169 -57.845747752 -952.499143678 -1030.425330372 -1491.094676987 -1116.760845006 -1133.177494385 -844.710850426 -1612.255580177 -1248.610871540 -1753.223876743 -1105.950987006 -1471.001742957 -1595.924827034 -1254.778135832 -541.382188125 -322.257055207 -218.052001570 -813.760334176 -106.319872836 -151.936494050 -235.095565622 -62.323149314 -302.337424295 126.615747755 31.765826643 -247.775792479 -133.672872851 -1053.022437150 -742.347283793 -751.442340555 -894.559927296 -98.967373623 -53.789720540 -1210.789752610 -1080.813936933 -584.807329307 -82.158427988 -936.973286108 -190.018481116 -129.301428463 -360.066118163 -169.737741054 -778.165709805 -31.250421944 -159.310102727 -427.721610276 -585.273621577 
    </DataArray>
    <DataArray Name="FrictionAngle" type="Float32" Format="ascii">
    0.523598776 0.523598776 0.112817567 0.523598776 0.523598776 0.523598776 0.523598776 0.523598776 0.523598776 0.523598776 0.523598776 0.523598776 0.523598776 0.523598776 0.523598776 0.523598776 0.523598776 0.523598776 0.523598776 0.523598776 0.523598776 0.523598776 0.523598776 0.523598776 0.523598776 0.523598776 0.523598776 0.523598776 0.523598776 0.523598776 0.523598776 0.523598776 0.523598776 0.523598776 0.523598776 0.523598776 0.523598776 0.523598776 0.523598776 0.523598776 0.523598776 0.523598776 0.523598776 0.523598776 0.523598776 0.523598776 0.523598776 0.523598776 0.523598776 0.523598776 0.523598776 0.523598776 0.523598776 0.523598776 0.523598776 0.523598776 0.523598776 0.523598776 0.523598776 0.523598776 0.523598776 0.523598776 0.523598776 0.523598776 0.523598776 0.523598776 0.523598776 0.523598776 0.523598776 0.523598776 0.523598776 0.523598776 0.523598776 0.523598776 0.523598776 0.523598776 0.523598776 0.523598776 0.523598776 0.523598776 0.523598776 0.523598776 0.523598776 0.523598776 0.523598776 0.523598776 0.523598776 0.523598776 0.523598776 0.523598776 0.523598776 0.523598776 0.523598776 0.523598776 0.523598776 0.523598776 0.027267223 0.523598776 0.005717863 0.002522067 0.000509164 0.000817631 0.523598776 0.523598776 0.458307299 0.523598776 0.523598776 0.003793054 0.001710656 0.012081636 0.001621984 0.002132788 0.001916555 0.000331692 0.000766370 0.001570606 0.001592520 0.001617234 0.002197978 0.002197418 0.001573490 0.013892687 0.001641102 0.001970315 0.001363169 0.001945050 0.001992658 0.002076434 0.002186017 0.002456079 0.002744686 0.002786993 0.002194022 0.002189722 0.002520781 0.002297971 0.004150706 0.005542955 0.002781228 0.003960000 0.005091729 0.003526151 0.523598776 0.523598776 0.523598776 0.523598776 0.523598776 0.523598776 0.523598776 0.523598776 0.523598776 0.523598776 0.523598776 0.523598776 0.523598776 0.523598776 0.523598776 0.523598776 0.523598776 0.523598776 0.523598776 0.523598776 0.523598776 0.523598776 0.523598776 0.523598776 0.523598776 0.523598776 0.523598776 0.523598776 0.523598776 0.523598776 0.523598776 0.523598776 0.523598776 0.523598776 0.523598776 0.523598776 0.523598776 0.523598776 0.523598776 0.151290945 0.475278663 0.161526588 0.523598776 0.523598776 0.523598776 0.523598776 0.523598776 0.523598776 0.523598776 0.523598776 0.523598776 0.523598776 0.113277916 0.145170303 0.020762108 0.523598776 0.523598776 0.023460146 0.491679880 0.005321074 0.015344615 0.012224495 0.307215984 0.523598776 0.523598776 0.523598776 0.226342627 0.523598776 0.523598776 0.523598776 0.523598776 0.523598776 0.523598776 0.523598776 0.523598776 0.001662353 0.002808757 0.005038140 0.007399521 0.000648459 0.004526095 0.004205032 0.001488947 0.003407036 0.086495830 0.012444549 0.019273611 0.003904584 0.523598776 0.000514279 0.030980398 0.006875854 0.002109428 0.003677063 0.072354478 0.523598776 0.002052901 0.002216200 0.002101001 0.002931727 0.001847190 0.002103467 0.001769339 0.001594629 0.002001767 0.001654836 0.002231363 0.003469346 
    </DataArray>
    <DataArray Name="Cohesion" type="Float32" Format="ascii">
    400.000000000 400.000000000 78.495611693 400.000000000 400.000000000 400.000000000 400.000000000 400.000000000 400.000000000 400.000000000 400.000000000 400.000000000 400.000000000 400.000000000 400.000000000 400.000000000 400.000000000 400.000000000 400.000000000 400.000000000 400.000000000 400.000000000 400.000000000 400.000000000 400.000000000 400.000000000 400.000000000 400.000000000 400.000000000 400.000000000 400.000000000 400.000000000 400.000000000 400.000000000 400.000000000 400.000000000 400.000000000 400.000000000 400.000000000 400.000000000 400.000000000 400.000000000 400.000000000 400.000000000 400.000000000 400.000000000 400.000000000 400.000000000 400.000000000 400.000000000 400.000000000 400.000000000 400.000000000 400.000000000 400.000000000 400.000000000 400.000000000 400.000000000 400.000000000 400.000000000 400.000000000 400.000000000 400.000000000 400.000000000 400.000000000 400.000000000 400.000000000 400.000000000 400.000000000 400.000000000 400.000000000 400.000000000 400.000000000 400.000000000 400.000000000 400.000000000 400.000000000 400.000000000 400.000000000 400.000000000 400.000000000 400.000000000 400.000000000 400.000000000 400.000000000 400.000000000 400.000000000 400.000000000 400.000000000 400.000000000 400.000000000 400.000000000 400.000000000 400.000000000 400.000000000 400.000000000 18.895969789 400.000000000 3.961495120 1.747343269 0.352759471 0.566471236 400.000000000 400.000000000 341.797589941 400.000000000 400.000000000 2.627917198 1.185178596 8.370810417 1.123744654 1.477641223 1.327830192 0.229803026 0.530956519 1.088148777 1.103331258 1.120453333 1.522806221 1.522417963 1.090147038 9.625755510 1.136989802 1.365075993 0.944431834 1.347571530 1.380555605 1.438597486 1.514519706 1.701624834 1.901579285 1.930890362 1.520065655 1.517086189 1.746451789 1.592083816 2.875710077 3.840311061 1.926896564 2.743582603 3.527683672 2.442999332 400.000000000 400.000000000 400.000000000 400.000000000 400.000000000 400.000000000 400.000000000 400.000000000 400.000000000 400.000000000 400.000000000 400.000000000 400.000000000 400.000000000 400.000000000 400.000000000 400.000000000 400.000000000 400.000000000 400.000000000 400.000000000 400.000000000 400.000000000 400.000000000 400.000000000 400.000000000 400.000000000 400.000000000 400.000000000 400.000000000 400.000000000 400.000000000 400.000000000 400.000000000 400.000000000 400.000000000 400.000000000 400.000000000 400.000000000 105.624551983 356.542330556 112.892434624 400.000000000 400.000000000 400.000000000 400.000000000 400.000000000 400.000000000 400.000000000 400.000000000 400.000000000 400.000000000 78.818662088 101.289477083 14.386477362 400.000000000 400.000000000 16.256648722 371.038465128 3.686583072 10.631895634 8.469800775 219.804555908 400.000000000 400.000000000 400.000000000 159.548736059 400.000000000 400.000000000 400.000000000 400.000000000 400.000000000 400.000000000 400.000000000 400.000000000 1.151712868 1.945969083 3.490555487 5.126632046 0.449265394 3.135792045 2.913348523 1.031573566 2.360473139 60.075963981 8.622281651 13.354803397 2.705189048 400.000000000 0.356302837 21.470719154 4.763806765 1.461456580 2.547555702 50.216313405 400.000000000 1.422293773 1.535431248 1.455618561 2.031166165 1.279772312 1.457327144 1.225835592 1.104792238 1.386866730 1.146505057 1.545936273 2.403642774 
    </DataArray>
    <DataArray Name="Pressure" type="Float32" Format="ascii">
    884.922792853 465.813200906 858.251094922 974.572089738 620.830964401 600.788539581 987.182373744 801.275659514 1430.971575935 1160.707894622 734.272447786 1078.539800784 796.043541809 958.807576006 612.546751283 905.637817729 894.058054797 629.501034494 991.641911667 733.222488314 1681.182483283 1696.275791675 1568.974748858 1760.280593068 1747.059853460 771.644764582 1265.135017277 1068.040857728 975.618094733 1295.533749186 1214.521889964 1543.694192557 1625.190485305 1891.503843058 1924.328145699 2072.067650580 2177.457209378 2103.112292567 1650.613652285 1635.090514959 1406.285028794 1695.467303812 1749.701535712 1444.521872826 1722.917939287 1725.335087016 1508.851452738 1590.036019972 2100.683565798 2196.960814133 2207.802320848 2027.234220283 1521.486464654 1852.894198444 1582.726522600 1883.946959143 1893.852114264 1832.868746484 1431.112086054 1643.434075713 1604.717344865 2099.990563356 2152.412657496 2016.590086439 1930.853309433 1803.887984057 1347.245866123 1665.020936520 1673.545616265 1735.850198338 1527.284181235 1228.669506213 1218.938066794 1505.699190640 1590.904928287 1536.289554417 1818.134749029 1736.089040957 1830.652541988 1624.469047743 1461.400840953 1660.862537203 1572.970041573 1504.541038666 1109.918631600 974.080380958 1130.542951022 1352.426064250 1044.521969187 1010.187989216 1307.394964364 1719.850916659 1193.363935296 1457.872290724 1003.753028600 1550.374738921 781.011187130 1211.660589310 802.813507312 500.648662494 117.834581782 610.044899749 922.283658504 1330.878202815 1334.109233377 749.775978102 1373.099102236 1328.724382038 1262.301291741 417.077470050 600.540274585 -115.738425981 1017.227343010 663.808102359 331.117255768 401.537170281 342.412470092 324.482986754 1326.653815220 1230.594643038 1059.328051565 993.833461484 285.540651005 215.252719217 236.931166365 162.448934277 319.991366174 471.361680471 1311.582473730 1110.249015308 1072.828717696 1082.505493272 237.505350621 272.818735543 154.682679019 217.668618971 760.075549271 773.963249268 290.502450485 839.212789269 786.272785522 310.936691648 605.638410796 577.250658816 596.722265102 705.522977390 688.282433039 951.456507870 841.897867106 574.348627095 870.310466518 784.055992432 782.722455665 550.576468079 677.534662004 678.522865614 533.251149365 570.155178719 1404.466681673 684.141884710 745.970800531 874.104629852 1320.844549969 991.390082215 830.900421563 1189.543830266 1356.346167658 690.339519927 1390.324330704 1116.566697936 789.019611861 549.156835847 501.458155736 612.652564462 817.949490231 541.805109830 777.157672676 509.357197277 407.597774772 509.531501667 786.936158035 619.305149619 248.510951400 224.110566427 1354.923534466 1232.109667349 1165.778622606 1417.676884467 1383.366969331 958.247608346 1190.746858374 1184.765075784 939.448298782 915.475165111 795.918840441 756.213245139 771.547059671 700.331925888 1059.877324350 54.006143084 851.132913596 701.404641071 500.595000871 58.927520633 829.056859900 1000.209433873 1319.986941053 922.708804756 872.544339236 845.713508441 1053.696272160 1290.255034671 1347.842900195 992.665249770 1027.249206817 1098.219062087 950.316847463 502.297480044 238.765996109 172.247147225 735.508377552 97.337034233 88.043924234 220.140059302 54.809894522 288.197180673 -58.262470928 -97.801691688 235.132134518 111.161601705 1042.734477273 732.507272575 754.305880225 908.325863749 93.445677468 40.677029017 1063.284819440 700.175715360 599.230856820 100.807264917 962.663056186 171.682225683 164.241306626 359.403401480 187.100651340 820.885869405 79.409047178 146.134659033 425.135292907 592.799517131 
    </DataArray>
    <DataArray Name="Density" type="Float32" Format="ascii">
    2040.548538096 2040.543189260 2040.251523015 2040.224305481 2040.409762881 2040.319914890 2040.044523593 2040.216893813 2040.111780745 2040.218807664 2040.286701678 2040.075031335 2040.207921559 2040.110527351 2040.383874938 2040.150150622 2040.098542885 2040.022110150 2039.949342059 2040.100105136 2040.116904017 2045.437290372 2040.217415381 2048.306054254 2053.187076110 2040.039021098 2040.068739211 2041.059841164 2039.934589441 2040.440702355 2039.968563449 2039.929411472 2040.044363653 2056.323425928 2056.118890858 2058.019813469 2050.980691605 2062.196794848 2039.974554789 2050.652806964 2039.914085329 2040.096436504 2039.903710747 2039.977159014 2040.013302357 2040.162015286 2049.613005185 2039.995911298 2050.451355917 2080.856651438 2093.565721169 2040.301058288 2040.036539214 2040.051717672 2052.927754876 2039.901802240 2041.982477294 2039.867401198 2040.137669766 2040.005964580 2039.914312794 2080.396096222 2079.788222934 2040.152496827 2059.596637399 2071.269728245 2062.489618579 2040.046208099 2039.938427934 2040.284444445 2039.927225467 2053.100316846 2039.813138412 2039.941355810 2039.999584198 2042.385565413 2040.009012433 2130.707829354 2078.543353350 2040.262277371 2039.959792726 2039.809439087 2039.746119416 2045.373885338 2040.155360223 2062.035741481 2040.666305437 2040.018129783 2067.345371712 2040.134439881 2040.656863461 2129.531156525 2050.955836398 2039.891657582 2040.336060986 2039.084495601 2040.140563641 2039.996705332 2039.776512360 2064.564410886 2041.199680962 2039.320715023 2040.376604514 2060.632369530 2039.654987025 2152.730887209 2161.357985017 2039.481572689 2039.444894306 2060.808652135 2054.916802819 2041.762923773 2051.507614340 2040.474464890 2040.805153970 2039.901005586 2040.269447279 2041.131794167 2039.183432930 2039.756982390 2039.787537247 2040.292164297 2040.510918701 2040.893506265 2040.796139493 2040.905702490 2040.239869911 2040.375054466 2039.118563210 2039.928601884 2039.424243104 2039.745767885 2040.588549063 2040.568670486 2040.831232952 2040.653256006 2040.490838020 2040.226273528 2040.577521148 2039.944685395 2040.310879698 2040.562493788 2040.272912654 2040.391888686 2040.252915640 2040.129671959 2040.306194502 2047.348909440 2040.115392736 2040.228847829 2040.088391112 2040.031319494 2054.733898072 2039.952178731 2040.085217422 2040.082209295 2040.421819168 2040.202816749 2039.950017828 2040.030691511 2040.060143789 2046.477324462 2050.165749582 2058.995296534 2040.007377786 2039.995320903 2039.974151318 2053.305936308 2060.201244056 2053.280896905 2040.057404626 2040.480637032 2040.196366549 2040.234363467 2039.821039215 2040.060370528 2069.448035523 2083.314392907 2040.621056917 2039.940392507 2039.423398170 2062.031732832 2040.595623365 2040.286810692 2039.807516851 2040.000092400 2051.516270839 2050.846961515 2047.552280334 2042.998185428 2047.616439452 2039.553258554 2063.343804219 2040.154240132 2075.233836793 2066.596984880 2233.438728003 2043.218651997 2039.940922832 2041.242690938 2050.524144561 2140.966155158 2105.065308462 2040.766379304 2039.733229323 2039.977736847 2040.987187077 2039.780631688 2039.078910334 2056.182502371 2043.076752317 2040.061028291 2047.267900120 2054.763014127 2040.866818417 2083.831313754 2039.870805901 2100.326745196 2212.171822486 2151.318626766 2110.502936552 2040.837825913 2143.794959756 2040.286417250 2068.342275118 2040.186987976 2056.516498934 2041.407091029 2039.897751909 2040.858856016 2052.302316566 2296.498179572 2060.313513929 2044.210968985 2233.197816745 2122.511080635 2103.700416106 2052.477319565 2171.597565839 2040.590539828 2078.936663977 2040.350947172 2040.702610184 2040.130323029 2040.603759090 2039.338063496 2041.239722470 2040.727954440 2040.620858606 2040.361641696 
    </DataArray>
    <DataArray Name="Velocity" type="Float32"  NumberOfComponents="3" Format="ascii">