<?xml version="1.0"?>
<VTKFile type="PolyData" version="0.1" byte_order="LittleEndian">
 <PolyData>
  <Piece Name ="SoilBlock" NumberOfPoints="250" NumberOfVerts="250">
   <Points>
    <DataArray Name="Position" type="Float32"  NumberOfComponents="3" Format="ascii">
    1.69017 0.509821 0 1.71102 0.510924 0 1.73058 0.509068 0 1.7506 0.508821 0 1.72843 0.529459 0 1.74932 0.533346 0 1.7724 0.508485 0 1.79265 0.509041 0 1.81395 0.509009 0 1.83369 0.509355 0 1.76579 0.528779 0 1.7862 0.530904 0 1.77065 0.549551 0 1.79122 0.552517 0 1.80468 0.528253 0 1.83065 0.551167 0 1.81117 0.548337 0 1.84428 0.528802 0 1.82509 0.530828 0 1.8746 0.509337 0 1.89519 0.509183 0 1.85453 0.508977 0 1.91492 0.509654 0 1.93517 0.509252 0 1.85209 0.54906 0 1.87207 0.550779 0 1.88317 0.529019 0 1.89322 0.54884 0 1.86392 0.530617 0 1.90346 0.530103 0 1.94373 0.530185 0 1.92319 0.529283 0 1.93311 0.548572 0 1.91226 0.550957 0 1.95477 0.509804 0 1.97493 0.509202 0 2.03284 0.51099 0 2.01432 0.508978 0 1.99428 0.510227 0 1.95223 0.55121 0 1.96352 0.529126 0 1.98428 0.53057 0 1.97308 0.548074 0 2.00422 0.528928 0 2.01285 0.547134 0 1.99208 0.55164 0 2.03118 0.552806 0 2.02587 0.531138 0 2.05308 0.50832 0 2.07107 0.512211 0 2.10991 0.512653 0 2.0907 0.50755 0 2.05179 0.54598 0 2.06819 0.531997 0 2.07045 0.553763 0 2.04612 0.528364 0 2.11042 0.554209 0 2.08997 0.545689 0 2.0894 0.527602 0 2.11012 0.532735 0 2.16706 0.508305 0 2.14884 0.511534 0 2.12824 0.507724 0 2.20555 0.508649 0 2.18742 0.511289 0 2.15076 0.553819 0 2.17046 0.545572 0 2.12881 0.545836 0 2.17281 0.527621 0 2.15123 0.533298 0 2.13232 0.527405 0 2.18742 0.554682 0 2.19436 0.531401 0 2.21575 0.528509 0 2.20655 0.54618 0 2.22638 0.510061 0 2.24584 0.509022 0 2.30659 0.510435 0 2.28724 0.509041 0 2.26752 0.509455 0 2.25545 0.527036 0 2.22866 0.55314 0 2.25527 0.563422 0 2.24713 0.547607 0 2.23443 0.531889 0 2.29006 0.527341 0 2.2973 0.542461 0 2.27495 0.552903 0 2.30716 0.554927 0 2.27069 0.535515 0 2.32328 0.510244 0 2.34173 0.509442 0 2.36272 0.508131 0 2.38979 0.508537 0 2.34496 0.529384 0 2.3273 0.541543 0 2.31708 0.530094 0 2.34523 0.554719 0 2.3245 0.563937 0 2.38311 0.538681 0 2.36298 0.554181 0 2.36194 0.534777 0 2.39299 0.559374 0 2.37738 0.519652 0 2.40044 0.533981 0 2.41103 0.509234 0 2.42151 0.517487 0 2.43884 0.508062 0 2.48591 0.514939 0 2.46323 0.509404 0 2.40861 0.556867 0 2.44852 0.525232 0 2.42309 0.550569 0 2.44328 0.554934 0 2.44809 0.541723 0 2.42095 0.534744 0 2.46825 0.544261 0 2.49196 0.542498 0 2.47617 0.533915 0 2.52446 0.510715 0 2.50551 0.511482 0 2.54913 0.511102 0 2.57158 0.512184 0 2.50996 0.538109 0 2.52853 0.541081 0 2.53776 0.530202 0 2.56785 0.53662 0 2.55616 0.538203 0 2.58346 0.533252 0 2.59388 0.507606 0 2.62874 0.513385 0 2.67357 0.512294 0 2.65151 0.513242 0 2.60064 0.540351 0 2.62365 0.53826 0 2.60802 0.520239 0 2.64249 0.538179 0 2.66661 0.535806 0 2.72416 0.506407 0 2.69764 0.511129 0 2.75175 0.516636 0 2.68803 0.53385 0 2.70975 0.528926 0 2.73031 0.528507 0 1.84693 0.567764 0 1.84975 0.589026 0 1.82956 0.573368 0 1.80832 0.568314 0 1.88865 0.608072 0 1.89024 0.586639 0 1.8711 0.593461 0 1.8856 0.567045 0 1.86677 0.572713 0 1.92802 0.605824 0 1.9091 0.592985 0 1.90663 0.57261 0 1.92557 0.567403 0 1.9308 0.586628 0 1.92928 0.628149 0 1.91042 0.613779 0 1.95091 0.592939 0 1.96712 0.605485 0 1.96564 0.566856 0 1.97072 0.585806 0 1.94592 0.572559 0 1.98657 0.572677 0 2.01101 0.584981 0 2.02963 0.594024 0 1.99016 0.593059 0 2.02755 0.572572 0 2.00644 0.605059 0 2.00597 0.566697 0 1.98771 0.633935 0 1.96987 0.624678 0 1.98821 0.613936 0 1.94687 0.613929 0 1.9512 0.633744 0 1.96855 0.647327 0 2.01072 0.623829 0 2.00782 0.644427 0 2.02585 0.652211 0 2.02821 0.612102 0 2.02868 0.633537 0 1.99138 0.653658 0 2.01116 0.666606 0 2.04809 0.565982 0 2.04947 0.584511 0 2.06879 0.573097 0 2.0701 0.594034 0 2.0504 0.603768 0 2.11086 0.592549 0 2.09113 0.603629 0 2.08849 0.584924 0 2.0902 0.56535 0 2.12751 0.60527 0 2.10958 0.57389 0 2.05056 0.6556 0 2.05247 0.642614 0 2.06929 0.6342 0 2.04722 0.623656 0 2.06792 0.614038 0 2.08023 0.654858 0 2.12193 0.627608 0 2.10532 0.644363 0 2.0886 0.623271 0 2.08787 0.641566 0 2.11803 0.642011 0 2.10791 0.614615 0 2.14929 0.574781 0 2.13107 0.565075 0 2.15316 0.593756 0 2.16928 0.566411 0 2.17284 0.584883 0 2.13121 0.585382 0 2.19621 0.572324 0 2.21341 0.5649 0 2.21223 0.5853 0 2.19444 0.605626 0 2.18693 0.592191 0 2.16708 0.61051 0 2.14605 0.611193 0 2.17358 0.628387 0 2.15316 0.635652 0 2.14039 0.627987 0 2.2105 0.61985 0 2.20459 0.623586 0 2.18421 0.623417 0 2.03919 0.665747 0 2.23496 0.572774 0 2.24095 0.586604 0 2.26394 0.60082 0 2.22017 0.598571 0 2.24867 0.603666 0 2.29196 0.600687 0 2.30485 0.591041 0 2.29897 0.575131 0 2.26624 0.579752 0 2.27412 0.592485 0 2.28556 0.567824 0 2.23239 0.61325 0 2.33421 0.582917 0 2.32139 0.586253 0 2.34361 0.57673 0 2.37804 0.565059 0 2.36337 0.576438 0 2.79393 0.511711 0 2.77402 0.517987 0 2.85423 0.508575 0 2.82648 0.507688 0 2.81423 0.522974 0 
    </DataArray>
   </Points>
   <PointData  Vectors="vector">
    <DataArray Name="SortedParticle_ID" type="Int32" Format="ascii">
    0 1 2 3 4 5 6 7 8 9 10 11 12 13 14 15 16 17 18 19 20 21 22 23 24 25 26 27 28 29 30 31 32 33 34 35 36 37 38 39 40 41 42 43 44 45 46 47 48 49 50 51 52 53 54 55 56 57 58 59 60 61 62 63 64 65 66 67 68 69 70 71 72 73 74 75 76 77 78 79 80 81 82 83 84 85 86 87 88 89 90 91 92 93 94 95 96 97 98 99 100 101 102 103 104 105 106 107 108 109 110 111 112 113 114 115 116 117 118 119 120 121 122 123 124 125 126 127 128 129 130 131 132 133 134 135 136 137 138 139 140 141 142 143 144 145 146 147 148 149 150 151 152 153 154 155 156 157 158 159 160 161 162 163 164 165 166 167 168 169 170 171 172 173 174 175 176 177 178 179 180 181 182 183 184 185 186 187 188 189 190 191 192 193 194 195 196 197 198 199 200 201 202 203 204 205 206 207 208 209 210 211 212 213 214 215 216 217 218 219 220 221 222 223 224 225 226 227 228 229 230 231 232 233 234 235 236 237 238 239 240 241 242 243 244 245 246 247 248 249 
    </DataArray>
    <DataArray Name="OriginalID" type="Int32" Format="ascii">
    0 1 2 4 3 5 6 9 12 16 7 10 8 11 13 18 14 21 17 25 30 20 36 42 22 27 31 32 26 37 50 43 44 38 49 56 81 72 64 51 57 65 58 73 74 66 83 82 90 100 120 110 92 101 102 91 122 112 111 121 150 140 130 169 160 142 152 132 151 141 131 162 161 170 171 178 186 208 201 194 187 180 189 188 179 202 203 196 210 195 214 220 225 230 215 216 209 227 217 231 222 221 147 226 235 234 238 241 167 242 148 236 183 149 157 232 198 158 228 212 184 223 239 159 168 176 199 192 206 244 200 233 213 177 185 218 193 207 246 240 237 219 224 229 23 24 19 15 35 34 29 33 28 47 40 39 45 46 48 41 53 61 59 60 52 67 76 85 68 84 77 75 70 62 69 54 55 63 78 79 88 86 87 71 80 93 94 103 104 95 124 115 114 113 135 123 98 97 106 96 105 99 126 108 116 107 117 125 143 133 144 153 154 134 163 172 173 174 164 155 145 118 109 136 166 146 127 89 181 190 137 182 128 129 156 211 197 191 204 119 175 165 205 138 139 245 243 249 248 247 
    </DataArray>
    <DataArray Name="ErodedLabel" type="Int32" Format="ascii">
    0 0 0 1 0 0 0 0 0 0 0 0 0 0 0 0 0 0 0 0 0 0 0 0 0 0 0 0 0 0 0 0 0 0 0 0 0 0 0 0 0 0 0 0 0 0 0 0 0 0 0 0 0 0 0 0 0 0 0 0 0 0 0 0 0 0 0 0 0 0 0 0 0 0 0 0 0 0 0 0 0 0 0 0 0 0 0 0 0 0 0 0 0 0 0 0 0 1 1 1 1 0 1 0 1 0 0 0 1 1 1 1 1 1 1 1 1 1 1 0 1 0 1 1 1 1 1 1 1 1 1 1 1 1 1 1 1 1 1 0 1 1 1 0 0 0 0 0 0 0 0 0 0 0 0 0 0 0 0 0 0 0 0 0 0 0 0 0 0 0 0 0 0 0 0 0 0 0 0 0 1 0 1 0 1 0 0 0 0 0 0 0 0 0 1 0 1 1 1 0 0 1 1 1 1 1 1 1 0 0 0 0 0 0 0 0 1 1 0 1 1 1 1 1 1 1 1 1 0 1 1 1 1 1 1 1 1 1 1 1 1 1 1 1 1 1 1 1 1 1 
    </DataArray>
    <DataArray Name="Indicator" type="Int32" Format="ascii">
    1 1 1 0 1 1 0 0 0 0 1 1 1 1 0 1 1 0 0 0 0 0 0 0 0 0 0 0 0 0 0 0 0 0 0 0 0 0 0 0 0 0 0 0 0 0 0 0 0 0 0 0 0 0 0 0 0 0 0 0 0 0 0 0 0 0 0 0 0 0 0 0 0 0 0 0 0 0 0 0 0 0 0 0 0 0 0 0 0 0 0 0 0 0 0 0 0 1 1 1 1 0 1 0 0 0 0 0 1 0 1 0 1 1 1 0 1 1 1 0 0 1 0 1 1 1 1 1 1 0 0 0 0 1 1 1 1 1 1 1 1 1 1 1 1 1 1 1 1 1 1 0 1 1 1 0 0 0 1 1 0 0 0 0 0 0 0 0 0 0 0 0 1 1 0 1 1 1 0 1 1 0 0 1 1 0 0 0 0 0 0 0 0 0 0 0 1 1 0 0 0 1 1 1 0 1 1 0 0 0 0 0 0 0 0 0 0 1 0 1 0 1 1 1 1 1 1 1 0 1 1 1 1 1 1 1 1 1 0 1 1 1 1 1 1 1 1 1 1 1 
    </DataArray>
    <DataArray Name="VerticalStress" type="Float32" Format="ascii">
    -347.213833053 -965.248207073 -980.239443835 -896.627762149 -510.629678277 -543.304752833 -1030.822364127 -1268.010138221 -1586.998760463 -2009.491296602 -897.793467245 -1132.229125435 -551.780957193 -758.803482758 -1329.021086113 -922.562597112 -1049.541912744 -1300.681805586 -1315.161629111 -2446.004266379 -2477.223610723 -2293.242531772 -2548.909094873 -2630.211697160 -848.580181042 -1031.382898555 -1786.378658206 -1474.340867223 -1400.519745353 -2150.999150019 -2437.707794109 -2369.497892466 -1944.152891156 -1732.898264835 -2799.386857963 -2844.915976909 -3207.655427671 -3045.854583932 -3050.853445067 -2048.350912846 -2493.547354032 -2528.317060071 -2317.172514258 -2638.503098233 -2315.664675796 -2272.308417183 -2317.028830645 -2613.580048135 -3169.222883830 -2996.861836168 -2776.690151811 -3092.176812980 -2511.549306623 -2656.130282735 -2326.836756442 -2818.913089886 -1839.576472733 -2319.633013184 -2588.959023951 -2486.665421321 -2789.080213044 -2768.882054496 -2984.252527166 -2680.123782838 -2713.586380112 -2041.668787567 -1961.917166397 -2140.401212988 -2353.903331828 -2108.401665408 -2520.089739085 -1571.521690536 -2370.936871177 -2414.132089204 -2141.848109656 -2626.173291298 -2470.781370422 -2335.386885429 -2520.880771766 -2353.250817235 -1908.862388815 -1614.448175718 -948.765379568 -1582.887490859 -2203.359573710 -1765.404975950 -1186.943573100 -1027.978843862 -1111.379038015 -1416.736620448 -2253.099303836 -1876.889667905 -2022.118563078 -1628.654480448 -1198.360333246 -1040.018759177 -1855.943578664 -1154.384387462 -1040.161803406 -923.757456121 -211.309963631 -1272.131323645 -367.260991923 -1590.982045277 -543.473887173 -1506.009548637 -1053.561035410 -1605.369392973 -1551.275456191 -1212.109574330 -282.487914561 -959.075377799 -278.181995042 -166.826815644 -388.484656735 -709.477149204 -209.684850065 -223.254989575 -398.373417836 -1111.811319133 -983.669380879 -1287.096702562 -1143.271104952 -595.282604303 -88.694169430 -615.074179538 -243.679765649 -104.640328547 -252.872382596 -1051.515452678 -1414.261034585 -1049.340675937 -1029.212057662 -150.543182964 34.422961922 -952.369155593 -262.304291866 -224.823307773 -774.865163893 -1016.118575968 -992.313112487 -164.805879695 -269.693430481 -362.118568582 -858.706058538 -613.017803207 -585.413027892 -596.693329321 -616.209241484 -1065.833668865 -704.674774276 -1184.776583954 -989.189258356 -882.288278586 -890.898045274 -1072.967003338 -1198.609806689 -838.191540209 -660.673791510 -604.762355865 -834.478482808 -998.448469844 -1838.703310424 -1290.090469127 -1186.406888250 -1970.113847097 -1547.845803397 -1671.240007283 -1073.541620342 -1952.969085674 -1019.489691419 -2122.445103257 -852.287933503 -988.751429813 -732.301552694 -894.158703096 -671.455011578 -602.660550909 -568.934010214 -824.626052857 -272.199321370 -794.295310411 -958.643096891 -540.570051065 -358.126240485 -2306.166202932 -2124.006537383 -2047.636755422 -1916.630845293 -1514.216626179 -622.886465525 -1158.467358195 -1742.711790128 -1812.236856019 -1233.913578409 -1347.166258044 -158.218766861 -568.284813677 60.740854939 -1167.912749064 -1479.171652001 -136.995660770 -706.654256328 -98.654557311 -2010.372103836 -202.913586942 -106.699510956 -203.488103200 -1510.657813838 -1662.670183142 -1257.777472435 -1572.080641909 -1238.035097053 -1497.170808733 -1429.470116482 -1439.726345485 -919.345253304 -1139.629522538 -1084.296792501 -348.091183318 -943.386857011 -313.524582088 -239.066626226 -134.181931550 -127.144151888 86.935104541 -105.670700035 -228.572668784 -1378.017954434 -308.593732280 -216.425006927 -788.221711822 -369.883407292 -236.871050436 -82.867247652 -822.047368550 -884.044064784 -114.791106435 -1413.635736348 -216.507839094 -51.090483817 -142.029087187 -135.260201330 -403.549834227 -290.449104213 -757.025583652 -609.647260795 -411.533411957 -574.740370024 -357.072235451 
    </DataArray>
    <DataArray Name="FrictionAngle" type="Float32" Format="ascii">
    0.523598776 0.523598776 0.523598776 0.112817567 0.523598776 0.523598776 0.523598776 0.523598776 0.523598776 0.523598776 0.523598776 0.523598776 0.523598776 0.523598776 0.523598776 0.523598776 0.523598776 0.523598776 0.523598776 0.523598776 0.523598776 0.523598776 0.523598776 0.523598776 0.523598776 0.523598776 0.523598776 0.523598776 0.523598776 0.523598776 0.523598776 0.523598776 0.523598776 0.523598776 0.523598776 0.523598776 0.523598776 0.523598776 0.523598776 0.523598776 0.523598776 0.523598776 0.523598776 0.523598776 0.523598776 0.523598776 0.523598776 0.523598776 0.523598776 0.523598776 0.523598776 0.523598776 0.523598776 0.523598776 0.523598776 0.523598776 0.523598776 0.523598776 0.523598776 0.523598776 0.523598776 0.523598776 0.523598776 0.523598776 0.523598776 0.523598776 0.523598776 0.523598776 0.523598776 0.523598776 0.523598776 0.523598776 0.523598776 0.523598776 0.523598776 0.523598776 0.523598776 0.523598776 0.523598776 0.523598776 0.523598776 0.523598776 0.523598776 0.523598776 0.523598776 0.523598776 0.523598776 0.523598776 0.382989582 0.523598776 0.523598776 0.523598776 0.523598776 0.523598776 0.523598776 0.523598776 0.523598776 0.007296179 0.001288716 0.004013545 0.001792026 0.523598776 0.001437005 0.523598776 0.006686032 0.523598776 0.523598776 0.458307299 0.001435753 0.003791505 0.001417113 0.000315281 0.001570308 0.001270540 0.000725688 0.001574984 0.000482032 0.001850401 0.001432841 0.002035027 0.001647718 0.002054527 0.001478580 0.001361187 0.001390311 0.000722230 0.001221644 0.001453295 0.001690694 0.012016421 0.001199464 0.002593031 0.001757893 0.001772817 0.001816135 0.001915429 0.001980119 0.002015988 0.003201275 0.002505321 0.003617112 0.002139144 0.002285916 0.002503197 0.523598776 0.523598776 0.523598776 0.523598776 0.523598776 0.523598776 0.523598776 0.523598776 0.523598776 0.523598776 0.523598776 0.523598776 0.523598776 0.523598776 0.523598776 0.523598776 0.523598776 0.523598776 0.523598776 0.523598776 0.523598776 0.523598776 0.523598776 0.523598776 0.523598776 0.523598776 0.523598776 0.523598776 0.482147314 0.523598776 0.523598776 0.523598776 0.523598776 0.523598776 0.523598776 0.446830597 0.044486828 0.523598776 0.337029444 0.477376791 0.150950175 0.523598776 0.523598776 0.523598776 0.523598776 0.523598776 0.523598776 0.523598776 0.523598776 0.523598776 0.259110814 0.523598776 0.024267189 0.011512220 0.023603780 0.523598776 0.523598776 0.008422625 0.004061345 0.006365126 0.003462550 0.009545009 0.009303735 0.041486087 0.523598776 0.523598776 0.523598776 0.523598776 0.523598776 0.523598776 0.523598776 0.523598776 0.279201944 0.001364053 0.523598776 0.007244639 0.000951063 0.000598551 0.006265405 0.007247088 0.001979157 0.002659334 0.002917291 0.027384187 0.523598776 0.006803333 0.001235670 0.003844084 0.002304557 0.002071654 0.002391218 0.000076998 0.003095706 0.000479970 0.355792404 0.002644301 0.001512653 0.002167201 0.001505470 0.001488992 0.001567507 0.004626875 0.004560262 0.001905341 0.003010946 0.003002546 
    </DataArray>
    <DataArray Name="Cohesion" type="Float32" Format="ascii">
    400.000000000 400.000000000 400.000000000 78.495611693 400.000000000 400.000000000 400.000000000 400.000000000 400.000000000 400.000000000 400.000000000 400.000000000 400.000000000 400.000000000 400.000000000 400.000000000 400.000000000 400.000000000 400.000000000 400.000000000 400.000000000 400.000000000 400.000000000 400.000000000 400.000000000 400.000000000 400.000000000 400.000000000 400.000000000 400.000000000 400.000000000 400.000000000 400.000000000 400.000000000 400.000000000 400.000000000 400.000000000 400.000000000 400.000000000 400.000000000 400.000000000 400.000000000 400.000000000 400.000000000 400.000000000 400.000000000 400.000000000 400.000000000 400.000000000 400.000000000 400.000000000 400.000000000 400.000000000 400.000000000 400.000000000 400.000000000 400.000000000 400.000000000 400.000000000 400.000000000 400.000000000 400.000000000 400.000000000 400.000000000 400.000000000 400.000000000 400.000000000 400.000000000 400.000000000 400.000000000 400.000000000 400.000000000 400.000000000 400.000000000 400.000000000 400.000000000 400.000000000 400.000000000 400.000000000 400.000000000 400.000000000 400.000000000 400.000000000 400.000000000 400.000000000 400.000000000 400.000000000 400.000000000 279.125798359 400.000000000 400.000000000 400.000000000 400.000000000 400.000000000 400.000000000 400.000000000 400.000000000 5.055030647 0.892848954 2.780680142 1.241553627 400.000000000 0.995587185 400.000000000 4.632288177 400.000000000 400.000000000 341.797589941 0.994719384 2.626844570 0.981805522 0.218433186 1.087942525 0.880256262 0.502771178 1.091181694 0.333961793 1.281997164 0.992702044 1.409910034 1.141573331 1.423419971 1.024390674 0.943058591 0.963236419 0.500375971 0.846379927 1.006872871 1.171348414 8.325621553 0.831013752 1.796508446 1.217904966 1.228245126 1.258256374 1.327049754 1.371868397 1.396719384 2.217915907 1.735741027 2.506019520 1.482044950 1.583731721 1.734269210 400.000000000 400.000000000 400.000000000 400.000000000 400.000000000 400.000000000 400.000000000 400.000000000 400.000000000 400.000000000 400.000000000 400.000000000 400.000000000 400.000000000 400.000000000 400.000000000 400.000000000 400.000000000 400.000000000 400.000000000 400.000000000 400.000000000 400.000000000 400.000000000 400.000000000 400.000000000 400.000000000 400.000000000 362.582816056 400.000000000 400.000000000 400.000000000 400.000000000 400.000000000 400.000000000 331.966291729 30.841726963 400.000000000 242.762935713 358.382922683 105.382984880 400.000000000 400.000000000 400.000000000 400.000000000 400.000000000 400.000000000 400.000000000 400.000000000 400.000000000 183.645644402 400.000000000 16.816102597 7.976252501 16.356216424 400.000000000 400.000000000 5.835503951 2.813797509 4.409947956 2.398934541 6.613177037 6.446002416 28.758904709 400.000000000 400.000000000 400.000000000 400.000000000 400.000000000 400.000000000 400.000000000 400.000000000 198.624989881 0.945044360 400.000000000 5.019321131 0.658915787 0.414688475 4.340856862 5.021017931 1.371201754 1.842444931 2.021164042 18.977064780 400.000000000 4.713559936 0.856098020 2.663272885 1.596646831 1.435286094 1.656687239 0.053345746 2.144774749 0.332533086 257.456670706 1.832029818 1.047997666 1.501483002 1.043020995 1.031604791 1.086001868 3.205615861 3.159463841 1.320060802 2.086050574 2.080231380 
    </DataArray>
    <DataArray Name="Pressure" type="Float32" Format="ascii">
    996.588003614 628.901559665 794.193077524 996.749223177 596.223231679 481.109414092 1274.747250341 1424.124897590 1372.605777114 1362.282977813 598.411242245 645.299222864 333.089676404 406.715549038 800.493595674 731.600892970 486.855176918 1341.105210943 1023.682045284 1530.650572607 1661.663471028 1396.751811548 1818.087040294 1912.701646660 1150.899497907 1216.818766109 1424.177841829 1139.022601833 1498.459924778 1339.781002750 1573.209765989 1429.300148019 1338.871434844 1139.037006512 2010.443716362 2024.694055207 2120.694589370 2069.196265172 2107.415455672 1342.857841732 1671.950432493 1726.581126515 1298.910352145 1828.077577757 1643.285269287 1328.050170070 1622.183774234 1863.744262581 2135.177722313 2005.644904498 1951.782122975 2108.231306918 1632.510723944 1773.034894405 1497.480298957 1902.897357717 1420.525536314 1681.256988914 1799.335716448 1747.800243988 1977.710396556 1936.645996566 2128.006928242 1875.366244980 1932.510198972 1305.673299193 1584.817590569 1472.489057761 1726.196804329 1491.533106178 1751.048083058 1309.602008300 1702.348758306 1503.372272752 1373.929422824 1882.630002777 1592.281815315 1295.038022129 1480.884842597 1566.861584251 1653.763092941 1205.497421230 989.897710564 1325.695419079 1523.865227561 1324.149833645 1044.765383833 1134.889679040 1026.213696828 1316.554680742 1319.664691378 1220.624243519 1251.225798552 1171.951622724 1159.753012378 1044.757608184 1502.266139728 1216.004688216 994.589552210 777.433523742 196.294208193 966.528187635 332.700271835 972.433458812 519.110189298 1059.329105896 841.790358969 1017.444844014 1547.804698581 1178.142363793 289.157103242 947.685131687 314.931585978 190.199337582 401.141729603 809.244203857 187.430717861 219.624776014 375.807645725 1111.505630941 984.238200968 1287.546261617 1141.454907221 598.703633593 93.059892421 614.065734475 246.246989714 103.345397340 254.206993525 1035.423755204 1417.684754897 1050.303889136 1029.711421293 155.018884920 -30.907805768 952.717574890 260.139194781 223.967420372 774.526310652 1015.944751786 990.670241422 163.417232023 266.659104246 360.889351669 584.106881434 308.781282835 354.571567791 407.832727806 308.169389439 438.799063164 297.838870506 778.230709336 565.325355624 561.037507997 561.899431937 903.505514853 1282.622821130 1140.986699444 244.815885946 260.597589622 1020.502832865 742.682902617 1098.925083691 995.381899749 1312.303103981 977.596454659 1142.782509388 1257.387188172 951.140875617 1259.420415429 1215.468900491 1232.905262283 282.055762756 316.429745228 813.368599053 384.874836286 201.615492856 142.735693681 761.952562195 364.816074616 134.656026216 1072.691969505 710.876550973 93.990973637 20.515320692 1427.523839188 1057.581712792 1160.292289387 1161.129298523 968.166256296 769.035458053 1086.554492265 1339.341517160 1461.547129209 869.424480088 1272.485189803 113.266235056 509.839976263 16.160941225 761.752216614 1035.715016807 43.407769648 691.139629817 256.505445140 2086.940017994 322.899860041 112.962334359 333.345372279 810.606682192 1056.764671685 814.509864156 1304.745753685 1040.569549549 869.205122403 1193.494318186 1027.404464748 632.789750037 1153.168873197 990.067159226 335.010629160 907.488574706 293.380786109 250.768515752 131.951256567 123.739264830 -90.560376274 108.660947323 212.897469357 1041.770229097 285.142899983 212.005296452 741.944366698 350.418585542 215.486126770 19.778183798 698.475557203 833.442931355 74.899745804 1020.216324071 185.277110396 2.250391528 89.781683682 93.570537230 358.949191164 269.134198723 748.129411500 613.582733335 408.488451991 567.435617718 361.449045544 
    </DataArray>
    <DataArray Name="Density" type="Float32" Format="ascii">
    2040.550077100 2040.512663534 2040.268274836 2040.216832808 2040.322332833 2040.405514966 2040.217576902 2040.056886754 2040.200383054 2040.140970381 2040.182954418 2040.103894363 2040.416223582 2040.285223442 2040.082868411 2040.088094649 2040.147373678 2040.052650076 2039.978917174 2040.119852366 2045.869968723 2040.201200237 2053.747628557 2049.546384378 2040.057081291 2040.018793308 2040.051217890 2040.024477786 2039.978388208 2040.007536596 2040.016912393 2040.034956785 2039.972120028 2039.998768516 2059.192343680 2052.493006814 2065.186676817 2067.383553105 2061.487088798 2039.993221501 2040.016991254 2040.018388923 2048.127778013 2040.069545396 2054.018416938 2040.045147985 2040.028628232 2040.100960909 2082.133186347 2050.113426774 2040.266065018 2090.795737470 2051.107798221 2040.066656022 2040.064240541 2039.945238521 2040.168892431 2039.844093786 2049.001909232 2040.019463127 2085.662270382 2040.220409800 2085.658971511 2065.641908386 2061.996269561 2039.951468117 2060.172586049 2044.744880454 2040.053175890 2040.465659444 2039.816716067 2040.485528229 2039.730869923 2040.104330745 2054.631004396 2039.999937451 2040.616605620 2128.777526632 2091.161226532 2040.219921381 2039.626928647 2061.302749306 2040.369240049 2045.084758999 2039.828148942 2039.963485152 2070.238372439 2040.127271337 2048.863464338 2040.399133328 2124.646417215 2040.415824947 2040.125244656 2040.094376122 2040.212270523 2040.777759435 2047.965896402 2037.987449254 2061.173442153 2039.347760802 2093.342007588 2039.752102517 2040.268769527 2067.066438112 2040.668515410 2144.660368559 2172.464509444 2040.358966881 2038.605951235 2040.097202150 2040.468709631 2039.198524629 2040.523409065 2040.571583952 2085.124545664 2129.241415736 2040.733377576 2040.815718499 2040.809367403 2039.962682795 2040.597956242 2039.393579442 2039.476753581 2039.772068443 2041.071600673 2039.844262321 2040.537534497 2041.035705591 2040.741413982 2040.198366670 2039.057299393 2039.734956835 2040.067914701 2040.608380000 2041.332860900 2039.413504108 2040.431068186 2040.628751194 2040.326792831 2039.613034362 2039.840059854 2040.788696327 2040.629409238 2040.494135872 2040.072920988 2040.306573187 2040.406487868 2040.254701237 2040.260948421 2039.952628009 2040.343601828 2048.468847480 2040.113890239 2039.912434548 2040.137641579 2040.100009682 2054.733321869 2039.984336005 2040.249107410 2040.397944444 2040.089717762 2039.904617886 2048.259989473 2062.893033047 2040.069443410 2039.974976936 2052.028002617 2039.876245481 2040.245237574 2040.242781152 2067.876429847 2055.631345677 2040.240903896 2039.836277520 2040.123536182 2040.289491689 2040.255333511 2040.190345025 2040.120849136 2064.946920058 2067.411697946 2058.753256523 2057.150382330 2040.357711215 2040.440638510 2058.713205689 2049.319410385 2040.338114549 2040.554203457 2066.706251019 2043.395118170 2045.373934857 2051.048204677 2048.276990857 2059.442858944 2040.113684517 2041.020569405 2160.728763944 2109.425440998 2046.702395555 2040.234625990 2040.255251243 2193.907398864 2040.501816841 2062.411440172 2151.911776281 2040.854837741 2047.558750034 2050.919044040 2040.388762210 2039.567744036 2039.882373592 2040.032972460 2040.238861593 2039.716682898 2098.976419195 2040.879371763 2195.954987138 2074.893104513 2040.956864443 2116.955934297 2040.071849641 2040.234504494 2085.771150772 2157.477559357 2122.380910173 2145.549504815 2039.979814088 2048.869980319 2066.042451910 2060.837927778 2046.992939507 2040.041232228 2040.160919227 2041.107769725 2134.261240192 2129.925805087 2214.999631713 2052.530283220 2040.489299368 2183.971252957 2081.480810715 2150.406153237 2040.123671936 2040.197522721 2040.196036299 2040.568425853 2040.612964194 2040.413932109 2040.477040716 
    </DataArray>
    <DataArray Name="Velocity" type="Float32"  NumberOfComponents="3" Format="ascii">