<?xml version="1.0"?>
<VTKFile type="PolyData" version="0.1" byte_order="LittleEndian">
 <PolyData>
  <Piece Name ="SoilBlock" NumberOfPoints="250" NumberOfVerts="250">
   <Points>
    <DataArray Name="Position" type="Float32"  NumberOfComponents="3" Format="ascii">
    1.71123 0.511451 0 1.69005 0.50955 0 1.7495 0.508955 0 1.73133 0.509903 0 1.7477 0.535339 0 1.72559 0.529384 0 1.79477 0.508406 0 1.77364 0.507879 0 1.83615 0.509083 0 1.8159 0.508797 0 1.77053 0.549242 0 1.79068 0.552943 0 1.8011 0.528499 0 1.76239 0.526475 0 1.78306 0.530292 0 1.82156 0.529294 0 1.83054 0.550566 0 1.81085 0.548302 0 1.84091 0.530031 0 1.87681 0.50926 0 1.8968 0.50908 0 1.85642 0.508866 0 1.93645 0.509344 0 1.91668 0.509556 0 1.8805 0.529979 0 1.89353 0.549521 0 1.86065 0.529039 0 1.85232 0.54942 0 1.8719 0.549677 0 1.92115 0.529703 0 1.93326 0.549755 0 1.91264 0.549362 0 1.90051 0.529234 0 1.94142 0.529494 0 1.97589 0.509568 0 1.95631 0.509507 0 2.03409 0.509986 0 2.01512 0.509738 0 1.99557 0.509551 0 1.97343 0.549026 0 1.95218 0.549343 0 1.96192 0.529618 0 1.98257 0.529846 0 1.99236 0.550302 0 2.03198 0.552118 0 2.02439 0.53062 0 2.0028 0.529329 0 2.01333 0.547795 0 2.07117 0.512182 0 2.05394 0.508886 0 2.12684 0.507421 0 2.10892 0.513351 0 2.09058 0.507335 0 2.06785 0.5316 0 2.06996 0.554408 0 2.04425 0.528935 0 2.05321 0.54558 0 2.08961 0.528006 0 2.11244 0.532223 0 2.12719 0.546346 0 2.10912 0.554621 0 2.08978 0.544968 0 2.16548 0.50862 0 2.14714 0.511617 0 2.20598 0.509004 0 2.18678 0.509833 0 2.13393 0.528111 0 2.15035 0.553495 0 2.16758 0.546586 0 2.15367 0.532147 0 2.21372 0.527346 0 2.2136 0.544085 0 2.19145 0.552624 0 2.19249 0.533616 0 2.17561 0.52726 0 2.26393 0.509814 0 2.24436 0.509053 0 2.22608 0.510405 0 2.28173 0.510188 0 2.30008 0.510667 0 2.25097 0.55062 0 2.23662 0.530921 0 2.25676 0.530021 0 2.23107 0.552083 0 2.29591 0.548214 0 2.27287 0.551377 0 2.27728 0.531903 0 2.29973 0.529538 0 2.34397 0.509844 0 2.32021 0.509011 0 2.36382 0.509318 0 2.3987 0.506921 0 2.31674 0.550214 0 2.32287 0.531198 0 2.34159 0.530866 0 2.33666 0.553451 0 2.35846 0.535172 0 2.39369 0.524895 0 2.4015 0.543512 0 2.37752 0.519989 0 2.38151 0.547319 0 2.363 0.553718 0 2.43483 0.515224 0 2.42219 0.506609 0 2.48129 0.512034 0 2.45313 0.509384 0 2.41684 0.528782 0 2.42043 0.552277 0 2.44003 0.556565 0 2.43533 0.535218 0 2.40446 0.562291 0 2.45253 0.541217 0 2.47339 0.546288 0 2.48829 0.53894 0 2.46643 0.525326 0 2.52622 0.511576 0 2.50183 0.510661 0 2.54657 0.510765 0 2.56961 0.511009 0 2.53768 0.535641 0 2.51292 0.527794 0 2.52311 0.546807 0 2.50262 0.543603 0 2.5636 0.529757 0 2.57487 0.545924 0 2.55093 0.540747 0 2.61276 0.510666 0 2.59065 0.510494 0 2.65865 0.510508 0 2.67883 0.510149 0 2.63686 0.510235 0 2.61684 0.543628 0 2.58827 0.535741 0 2.62745 0.529087 0 2.60251 0.532315 0 2.65606 0.532314 0 2.64172 0.540069 0 2.67283 0.539136 0 2.70062 0.510406 0 2.72327 0.507355 0 2.75085 0.511111 0 2.71959 0.539564 0 2.70582 0.531254 0 2.68723 0.533383 0 2.75286 0.537483 0 2.73397 0.526157 0 2.76961 0.53356 0 1.82842 0.574323 0 1.80774 0.567975 0 1.84491 0.567773 0 1.85013 0.589061 0 1.88861 0.607739 0 1.88936 0.586662 0 1.8707 0.594198 0 1.8837 0.566839 0 1.8651 0.572441 0 1.9265 0.605667 0 1.90908 0.592462 0 1.90456 0.571948 0 1.92332 0.567807 0 1.93039 0.586118 0 1.92954 0.627477 0 1.90959 0.614518 0 1.94508 0.571546 0 1.98564 0.571891 0 1.9495 0.592782 0 1.96746 0.603905 0 1.98997 0.592506 0 1.96407 0.567049 0 1.96975 0.585135 0 2.02666 0.572562 0 2.00724 0.604605 0 2.03014 0.593085 0 2.01026 0.584593 0 2.00491 0.56658 0 1.98629 0.613388 0 1.94635 0.61312 0 1.95096 0.63458 0 1.9731 0.643695 0 1.98664 0.631146 0 1.96609 0.624083 0 2.00507 0.625532 0 2.0243 0.612815 0 2.01396 0.634861 0 2.04643 0.565546 0 2.05088 0.583735 0 2.06939 0.573596 0 2.06841 0.59449 0 2.04743 0.60335 0 2.10632 0.594679 0 2.08851 0.604065 0 2.08968 0.583575 0 2.09038 0.56508 0 2.12632 0.585505 0 2.11197 0.573226 0 2.05051 0.623813 0 2.06629 0.619825 0 2.03626 0.624907 0 2.07646 0.61533 0 2.12243 0.616579 0 2.10438 0.619794 0 2.14328 0.598257 0 2.13464 0.564773 0 2.16456 0.600116 0 2.1496 0.576784 0 2.12857 0.605898 0 2.16522 0.579299 0 2.18925 0.580566 0 2.20754 0.565821 0 2.17556 0.5643 0 2.19263 0.601996 0 2.18043 0.601561 0 2.20462 0.590421 0 2.21862 0.597762 0 2.21976 0.570878 0 2.15353 0.612394 0 2.26496 0.585484 0 2.24493 0.569507 0 2.24536 0.585405 0 2.23482 0.592942 0 2.2922 0.566562 0 2.29541 0.581184 0 2.31029 0.575173 0 2.27799 0.591771 0 2.27028 0.568713 0 2.32442 0.574508 0 2.35765 0.564853 0 2.34082 0.566853 0 2.38601 0.566405 0 2.77464 0.510117 0 2.79967 0.511004 0 2.82345 0.511142 0 2.84787 0.510963 0 2.78844 0.531761 0 2.8081 0.535379 0 2.85417 0.53344 0 2.83014 0.533664 0 2.90044 0.508231 0 2.87327 0.510081 0 2.93395 0.506319 0 2.87898 0.531219 0 2.9032 0.530396 0 2.92393 0.52359 0 2.95066 0.524515 0 2.99363 0.517573 0 2.97001 0.513601 0 3.01496 0.510483 0 3.03769 0.518475 0 3.08651 0.508497 0 3.05745 0.506746 0 
    </DataArray>
   </Points>
   <PointData  Vectors="vector">
    <DataArray Name="SortedParticle_ID" type="Int32" Format="ascii">
    0 1 2 3 4 5 6 7 8 9 10 11 12 13 14 15 16 17 18 19 20 21 22 23 24 25 26 27 28 29 30 31 32 33 34 35 36 37 38 39 40 41 42 43 44 45 46 47 48 49 50 51 52 53 54 55 56 57 58 59 60 61 62 63 64 65 66 67 68 69 70 71 72 73 74 75 76 77 78 79 80 81 82 83 84 85 86 87 88 89 90 91 92 93 94 95 96 97 98 99 100 101 102 103 104 105 106 107 108 109 110 111 112 113 114 115 116 117 118 119 120 121 122 123 124 125 126 127 128 129 130 131 132 133 134 135 136 137 138 139 140 141 142 143 144 145 146 147 148 149 150 151 152 153 154 155 156 157 158 159 160 161 162 163 164 165 166 167 168 169 170 171 172 173 174 175 176 177 178 179 180 181 182 183 184 185 186 187 188 189 190 191 192 193 194 195 196 197 198 199 200 201 202 203 204 205 206 207 208 209 210 211 212 213 214 215 216 217 218 219 220 221 222 223 224 225 226 227 228 229 230 231 232 233 234 235 236 237 238 239 240 241 242 243 244 245 246 247 248 249 
    </DataArray>
    <DataArray Name="OriginalID" type="Int32" Format="ascii">
    1 0 4 2 5 3 9 6 16 12 8 11 13 7 10 17 18 14 21 25 30 20 42 36 31 32 26 22 27 43 44 38 37 50 56 49 81 72 64 58 51 57 65 66 83 82 73 74 100 90 130 120 110 101 102 91 92 111 121 132 122 112 150 140 169 160 131 142 152 141 170 171 162 161 151 194 186 178 201 208 188 179 187 180 203 196 195 202 220 214 225 230 216 209 215 217 221 238 235 226 231 227 241 234 128 242 232 174 109 236 136 197 118 190 127 156 191 138 183 137 166 119 146 222 129 211 167 157 212 223 184 139 165 205 175 148 147 149 239 244 176 158 228 198 168 159 192 19 15 23 24 35 34 29 33 28 47 40 39 45 46 48 41 52 67 53 61 68 59 60 84 77 85 76 75 69 54 55 63 70 62 78 86 71 93 94 103 104 95 124 115 114 113 134 123 87 96 79 105 88 80 135 133 144 143 97 154 163 172 153 125 116 164 98 181 89 173 189 145 106 182 107 155 99 204 108 210 126 117 199 218 200 213 206 177 193 185 240 233 246 207 219 224 229 243 237 245 247 249 248 
    </DataArray>
    <DataArray Name="ErodedLabel" type="Int32" Format="ascii">
    0 0 1 0 0 0 0 0 0 0 0 0 0 0 0 0 0 0 0 0 0 0 0 0 0 0 0 0 0 0 0 0 0 0 0 0 0 0 0 0 0 0 0 0 0 0 0 0 0 0 0 0 0 0 0 0 0 0 0 0 0 0 0 0 0 0 0 0 0 0 0 0 0 0 0 0 0 0 0 0 0 0 0 0 1 0 0 0 0 0 0 0 1 0 0 1 1 0 1 0 1 1 0 0 1 1 1 1 1 1 1 1 1 1 1 1 1 1 1 1 1 1 1 0 1 1 1 1 1 0 1 1 1 1 1 1 1 1 1 1 1 1 1 1 1 0 1 0 0 0 0 0 0 0 0 0 0 0 0 0 0 0 0 0 0 0 0 0 0 0 0 1 0 0 0 1 0 0 1 1 1 1 1 1 0 0 0 1 1 1 1 0 0 1 0 1 1 1 1 1 1 1 0 1 0 1 1 1 0 0 1 1 1 1 1 1 1 1 1 1 1 1 1 1 1 1 1 1 1 1 1 1 1 1 1 1 1 1 1 1 1 1 0 1 0 1 1 1 1 1 
    </DataArray>
    <DataArray Name="Indicator" type="Int32" Format="ascii">
    1 1 0 1 1 1 0 0 0 0 1 1 0 1 1 0 0 1 0 0 0 0 0 0 0 0 0 0 0 0 0 0 0 0 0 0 0 0 0 0 0 0 0 0 0 0 0 0 0 0 0 0 0 0 0 0 0 0 0 0 0 0 0 0 0 0 0 0 0 0 0 0 0 0 0 0 0 0 0 0 0 0 0 0 0 0 0 0 0 0 0 0 0 0 0 1 0 0 1 0 1 1 0 0 0 0 0 1 1 1 1 1 1 1 1 0 0 0 0 1 1 1 1 1 1 1 0 0 1 0 0 1 1 1 1 1 1 1 1 1 1 1 1 1 1 1 1 1 1 1 1 1 1 1 0 1 1 1 0 0 0 1 1 0 0 0 0 0 0 0 0 0 0 0 0 0 1 1 1 1 1 1 1 1 0 0 0 1 1 0 1 0 0 0 0 1 1 1 1 1 1 1 0 1 0 1 0 1 0 0 1 1 1 1 0 1 1 1 1 1 1 1 1 1 0 1 1 1 1 0 0 0 0 1 1 1 1 1 1 1 1 1 1 1 1 1 1 1 1 1 
    </DataArray>
    <DataArray Name="VerticalStress" type="Float32" Format="ascii">
    -510.480523816 -741.425214568 -980.192370308 -638.413235808 -452.068694720 -514.511963172 -1266.306873397 -1107.325671122 -1940.318965490 -1638.604519020 -549.814237888 -721.616888585 -1349.025271418 -875.955158058 -1169.406079740 -1320.725866916 -727.061398888 -938.398651730 -1344.069341356 -2058.768105344 -2269.638703830 -2037.528953873 -2691.062398241 -2529.773906894 -1968.392609273 -1775.761497889 -1707.334953262 -1068.147702330 -1592.038246224 -1909.059246833 -1596.914692060 -1587.762291421 -1966.912422835 -2059.874998086 -2782.154096104 -2749.919048931 -2682.545242911 -2698.612535297 -2815.181707590 -1834.335970780 -1776.877742340 -2264.085410961 -2323.712242387 -1763.547112855 -1913.758010939 -2331.845669350 -2345.708573312 -1946.173609824 -2527.839723714 -2595.381955318 -2390.076059936 -2297.293599438 -2624.028316335 -1881.880444874 -1406.359022345 -2340.730523414 -1829.224995522 -1993.981094324 -1961.466752698 -1907.079013028 -1620.999329982 -1683.286847800 -2271.116270945 -2310.325836353 -2337.195061636 -2225.469736060 -1994.662922493 -1387.905527692 -1695.154303496 -1677.346047928 -2202.414343411 -1567.644741211 -1249.869899310 -1748.673945913 -1824.444261316 -2120.637944494 -2255.636829122 -2383.626936050 -1975.477376711 -1749.542718130 -1102.245609743 -1752.377159011 -1465.013250060 -1308.861353246 -1416.153481952 -1151.956891355 -1546.872107466 -1599.815099848 -1959.058364788 -1682.022166086 -1760.806440345 -1939.600535468 -1162.791047064 -1229.227403546 -1887.867290296 186.835850067 -1142.691508622 -1300.442931704 -370.954258707 -1365.110239088 -967.729612289 -553.886095566 -1042.589192987 -1422.447738649 -1389.683545281 -1568.840523299 -948.371617437 -346.348895402 -265.998149900 -341.953123073 -180.914003784 -568.546071746 -90.156229914 -477.982222844 -889.870000959 -1297.471186738 -1279.734383125 -1192.118815579 -1259.728045062 -494.699135438 -661.617365158 -181.250636218 -195.869025285 -590.205936604 -184.210826325 -115.957053665 -1236.057267681 -1102.228733836 -1009.983594192 -974.420270535 -1184.913094367 -159.347854209 -368.480372648 -518.324540644 -385.213153880 -452.593294442 -145.309358813 -266.664895135 -1031.963865416 -937.061191757 -1095.228977223 -165.999221841 -387.132984788 -378.256888517 -185.223826276 -713.224966518 -348.810233930 -208.875112790 -430.998777250 -447.509935418 -182.912361869 -127.775673039 -498.181556541 -256.456725374 -1244.325901698 -651.621604795 -418.274585352 -515.772389658 -1204.205786989 -1417.710761395 -1221.485666187 -60.559153683 -80.070650941 -1713.617374833 -1293.415946719 -1307.186741930 -1035.475757339 -1014.482028477 -1751.504068155 -1413.984060455 -1575.430082414 -1021.209127446 -1103.328816561 -1133.733702881 -1486.140023114 -792.029749563 -503.481086588 -75.524662238 -211.515359682 -144.854111140 -351.183824851 -108.349801281 -547.879069372 -244.934005562 -1645.498394583 -1297.744134885 -1117.856407596 -684.491744401 -747.942462063 -576.797278034 -656.766799414 -1002.864098677 -1236.440010576 -967.381870603 -1331.759925605 -175.679912577 -221.088131989 -131.795768448 -194.402390232 -136.647963767 -228.365623450 -398.757573493 -1125.485146168 -317.471475720 -1157.091092740 -405.617341449 -814.665046367 -846.611064991 -1367.249466673 -1293.693347888 -106.269653432 -163.725238255 -342.243146203 -267.134738833 -581.267243318 -160.974953287 -152.154820129 -780.137491880 -295.676541865 -259.680578533 -277.525701669 -275.673027807 -312.643760146 -212.988213480 -780.520590574 -244.239938172 -138.895167523 -718.671618137 6.264693047 -1004.115765136 -1023.010390548 -941.532518309 -908.668691590 -305.323190316 -316.302157888 -388.860406880 -367.402436336 -831.459013500 -876.163045605 -756.740981258 -435.769353761 -430.927570510 -463.767678469 -494.138500193 -579.636807978 -864.466378238 -625.798583527 -525.960568572 -396.176869238 -451.866898406 
    </DataArray>
    <DataArray Name="FrictionAngle" type="Float32" Format="ascii">
    0.523598776 0.523598776 0.009705040 0.523598776 0.523598776 0.523598776 0.523598776 0.523598776 0.523598776 0.523598776 0.523598776 0.523598776 0.523598776 0.523598776 0.523598776 0.523598776 0.523598776 0.523598776 0.523598776 0.523598776 0.523598776 0.523598776 0.523598776 0.523598776 0.523598776 0.523598776 0.523598776 0.523598776 0.523598776 0.523598776 0.523598776 0.523598776 0.523598776 0.523598776 0.523598776 0.523598776 0.523598776 0.523598776 0.523598776 0.523598776 0.523598776 0.523598776 0.523598776 0.523598776 0.523598776 0.523598776 0.523598776 0.523598776 0.523598776 0.523598776 0.523598776 0.523598776 0.523598776 0.523598776 0.523598776 0.523598776 0.523598776 0.523598776 0.523598776 0.523598776 0.523598776 0.523598776 0.523598776 0.523598776 0.523598776 0.523598776 0.523598776 0.523598776 0.523598776 0.523598776 0.523598776 0.523598776 0.523598776 0.523598776 0.523598776 0.523598776 0.523598776 0.523598776 0.523598776 0.523598776 0.523598776 0.523598776 0.523598776 0.523598776 0.234173911 0.235033552 0.523598776 0.523598776 0.523598776 0.523598776 0.523598776 0.523598776 0.024095609 0.523598776 0.523598776 0.000007306 0.005328588 0.389579012 0.001108563 0.523598776 0.001340154 0.000040205 0.458307299 0.523598776 0.000933052 0.003784792 0.000702969 0.000611961 0.000932004 0.000015777 0.001018672 0.000719291 0.000398021 0.001062397 0.000872834 0.001108981 0.000379888 0.001041562 0.001165860 0.000695483 0.000740661 0.000798795 0.000842801 0.000789848 0.000832144 0.000073055 0.001245104 0.000651483 0.001707105 0.001657236 0.001412950 0.000884318 0.001016503 0.000890046 0.000901101 0.000973818 0.000952760 0.000863732 0.000720215 0.006336379 0.000197793 0.001220630 0.001018813 0.000412854 0.001081561 0.001024489 0.001154005 0.523598776 0.523598776 0.523598776 0.523598776 0.523598776 0.523598776 0.523598776 0.523598776 0.523598776 0.523598776 0.448799853 0.523598776 0.523598776 0.523598776 0.460117692 0.523598776 0.523598776 0.523598776 0.523598776 0.523598776 0.523598776 0.523598776 0.523598776 0.523598776 0.157048649 0.523598776 0.523598776 0.523598776 0.016588263 0.213823830 0.307674098 0.030418342 0.016003629 0.161823487 0.004962687 0.014707860 0.015198903 0.523598776 0.523598776 0.523598776 0.054044815 0.015562462 0.005170972 0.004722860 0.523598776 0.523598776 0.049996113 0.523598776 0.006439496 0.006504791 0.011436984 0.002000403 0.003110927 0.004504496 0.002697520 0.523598776 0.003077138 0.515238532 0.002659207 0.010620861 0.014879902 0.523598776 0.523598776 0.000826012 0.001440356 0.001686472 0.001670898 0.002103758 0.003012122 0.000669033 0.003812266 0.000559471 0.001628773 0.000878039 0.001299647 0.001024796 0.001282919 0.001257886 0.001032882 0.002045674 0.000971579 0.001140588 0.000190763 0.000120219 0.000603883 0.001442164 0.001359336 0.001339782 0.001538943 0.001338775 0.001830743 0.001677438 0.002273998 0.001529409 0.001596392 0.001762527 0.001852335 0.003237438 0.002754380 0.002285416 0.001474853 0.001254690 0.001706340 
    </DataArray>
    <DataArray Name="Cohesion" type="Float32" Format="ascii">
    400.000000000 400.000000000 6.724060009 400.000000000 400.000000000 400.000000000 400.000000000 400.000000000 400.000000000 400.000000000 400.000000000 400.000000000 400.000000000 400.000000000 400.000000000 400.000000000 400.000000000 400.000000000 400.000000000 400.000000000 400.000000000 400.000000000 400.000000000 400.000000000 400.000000000 400.000000000 400.000000000 400.000000000 400.000000000 400.000000000 400.000000000 400.000000000 400.000000000 400.000000000 400.000000000 400.000000000 400.000000000 400.000000000 400.000000000 400.000000000 400.000000000 400.000000000 400.000000000 400.000000000 400.000000000 400.000000000 400.000000000 400.000000000 400.000000000 400.000000000 400.000000000 400.000000000 400.000000000 400.000000000 400.000000000 400.000000000 400.000000000 400.000000000 400.000000000 400.000000000 400.000000000 400.000000000 400.000000000 400.000000000 400.000000000 400.000000000 400.000000000 400.000000000 400.000000000 400.000000000 400.000000000 400.000000000 400.000000000 400.000000000 400.000000000 400.000000000 400.000000000 400.000000000 400.000000000 400.000000000 400.000000000 400.000000000 400.000000000 400.000000000 165.272587960 165.902185653 400.000000000 400.000000000 400.000000000 400.000000000 400.000000000 400.000000000 16.697159168 400.000000000 400.000000000 0.005061654 3.691789144 284.446307020 0.768035588 400.000000000 0.928486667 0.027854967 341.797589941 400.000000000 0.646437782 2.622193201 0.487030957 0.423978959 0.645711402 0.010930708 0.705756993 0.498339181 0.275756821 0.736050346 0.604717222 0.768324686 0.263194176 0.721615247 0.807732078 0.481844488 0.513145224 0.553421834 0.583909564 0.547222567 0.576526328 0.050614269 0.862633683 0.451360493 1.182718098 1.148167587 0.978921435 0.612673601 0.704254422 0.616642342 0.624301244 0.674680813 0.660091449 0.598410958 0.498979408 4.390031116 0.137034857 0.845677409 0.705854302 0.286033726 0.749327667 0.709787375 0.799518299 400.000000000 400.000000000 400.000000000 400.000000000 400.000000000 400.000000000 400.000000000 400.000000000 400.000000000 400.000000000 333.645453088 400.000000000 400.000000000 400.000000000 343.358536607 400.000000000 400.000000000 400.000000000 400.000000000 400.000000000 400.000000000 400.000000000 400.000000000 400.000000000 109.709954451 400.000000000 400.000000000 400.000000000 11.493739655 150.441270631 220.153944290 21.080947839 11.088585926 113.103603680 3.438278540 10.190639204 10.530920012 400.000000000 400.000000000 400.000000000 37.479844257 10.782860131 3.582586079 3.272117451 400.000000000 400.000000000 34.667212669 400.000000000 4.461475109 4.506714650 7.924120366 1.385921699 2.155320491 3.120827650 1.868901411 400.000000000 2.131910182 392.314056844 1.842356850 7.358625368 10.309859137 400.000000000 400.000000000 0.572278321 0.997908688 1.168423214 1.157633066 1.457528143 2.086865862 0.463519970 2.641228345 0.387612925 1.128447953 0.608323469 0.900422496 0.709999956 0.888832861 0.871489537 0.715601928 1.417286337 0.673130163 0.790222652 0.132164681 0.083290172 0.418382450 0.999160879 0.941776053 0.928228734 1.066211582 0.927531105 1.268377462 1.162164061 1.575474669 1.059606338 1.106013690 1.221115932 1.283336644 2.242970724 1.908295029 1.583385337 1.021808580 0.869274904 1.182187986 
    </DataArray>
    <DataArray Name="Pressure" type="Float32" Format="ascii">
    1001.553759751 1146.844759489 1038.338601872 946.643702369 506.940595850 609.880520275 1374.548740525 1300.008368744 1393.540490716 1363.063604286 405.013480246 342.294461830 710.096420754 731.524773409 618.505198515 1036.771521821 969.406526984 553.266384402 1256.631577327 1654.295169581 1732.858800929 1543.480136414 1786.506222123 1755.471518736 1108.023402294 855.263848436 1184.312776169 1001.944156145 724.425000402 1655.650227305 1404.779303380 1274.743377099 1389.635567440 1678.286088370 1872.947572981 1838.192477567 1969.880563771 1932.895538258 1942.900376232 1374.093231747 1290.902543775 1585.335060459 1632.434248612 1521.933770093 1199.328028879 1623.532291494 1696.888148553 1477.159880631 1786.863181746 1885.615109427 1782.136731889 1757.054058905 1834.769511200 1637.457406918 1389.347861699 1619.260781376 1370.041132846 1695.430287271 1449.618377023 1247.836120598 1184.325848445 1533.649965751 1727.336800927 1747.457434276 1823.169132052 1742.883559110 1530.497852198 1396.224208351 1461.850311966 1585.032405581 1509.382475241 1119.331533074 1095.931434450 1281.373363460 1511.456306081 1499.204541863 1696.734948445 1716.627085519 1477.446539442 1401.512836683 1078.840455738 1564.748666563 1317.973223016 1163.604434902 1002.168586095 1010.668955045 1168.690171480 1194.256463461 1502.220154548 1531.570494435 1469.304879317 1233.972080369 1088.510276717 1088.440560123 1349.731541941 -198.629203399 1106.430353758 1116.060038178 429.923608572 1138.994236869 1001.878071900 537.529293497 626.409189778 1365.849883174 1394.734630371 1561.772669662 973.862828848 352.385070669 266.716329906 330.202404706 182.105463501 562.149876541 92.265979610 481.174121861 886.455093960 1297.696159427 1280.446815422 1191.997078389 1259.774413955 496.025169607 662.923419944 183.430544156 199.093332133 589.664785986 184.526242345 114.930704008 1235.086670330 1100.453651014 1009.993482567 974.102007130 1185.705430971 159.152448420 367.742963476 517.345033791 384.314910394 452.267112541 146.146634048 265.490011737 1031.768006005 936.411775354 1094.768206259 165.586941894 386.650942007 377.077604520 185.522408239 713.149098437 347.653538417 632.978741894 407.712729208 872.024002235 570.192185086 516.664052228 711.889551764 503.894274458 602.325689979 701.037070810 712.145532329 838.670056928 801.784602564 986.371557596 705.784155600 383.793726848 598.391994669 781.916338633 1222.031011257 480.346305684 633.387612980 872.988884894 979.724019248 682.014172845 992.743950015 839.821033122 725.859786332 1080.624862737 1370.921277991 778.247185225 660.452332031 360.645230706 243.858020972 137.567579384 336.227672609 83.216864776 503.185097624 215.152910366 1019.869344281 866.763569483 1031.698256255 693.147327309 708.206822015 547.239266330 699.875355185 928.396115998 1216.333055047 905.438063373 959.179819587 203.772737626 262.101908250 132.348026490 235.834298833 148.442479968 241.479315588 423.700376148 951.236962822 326.216712156 965.960544798 426.797078805 905.126463735 864.079736918 865.679473982 1151.049805557 117.683907650 176.154009571 336.748982961 263.057887797 551.365511648 163.489666264 137.268192602 808.057984944 285.501965615 258.172690805 270.715555183 279.245539372 336.869878112 196.541666760 764.986096302 269.582378884 134.685630188 731.286687582 -6.374209737 1004.364990254 1023.640804312 941.205035587 911.756223070 305.340703704 315.939949591 388.878787808 368.351982010 831.948946885 877.440618954 759.618466791 434.758167176 432.132845378 464.531437324 493.897024662 579.824356218 864.023336592 624.823809592 527.705325413 395.059204009 449.925827151 
    </DataArray>
    <DataArray Name="Density" type="Float32" Format="ascii">
    2040.396080361 2040.559848496 2040.168866767 2040.388665126 2040.487588139 2040.363245392 2040.158677116 2040.191710855 2046.677982064 2041.623699108 2040.375849091 2040.325918416 2040.098636344 2040.123903359 2040.059691468 2040.021496143 2040.044959805 2040.107527276 2040.059754188 2046.702596427 2062.324309096 2050.788124805 2063.198768449 2060.411996736 2040.028427830 2039.948122182 2040.025504982 2040.027324713 2040.009885117 2040.013370377 2039.981973078 2040.005700823 2040.020314519 2039.976128353 2063.926085812 2064.050900405 2078.790440944 2065.569398343 2071.019983106 2040.009134158 2040.066787191 2040.004335163 2040.015579734 2046.030157708 2040.106880977 2039.966678248 2040.015851790 2049.006782591 2073.332075135 2090.765763221 2081.930520865 2048.487896523 2105.071938471 2040.159840862 2040.093188011 2039.924284384 2057.237928834 2039.938976379 2040.072674829 2039.905657679 2039.945544350 2039.905288014 2058.692026694 2051.153749922 2069.894465480 2040.405474410 2039.966356771 2039.658118045 2047.212834470 2040.056743475 2058.905500560 2074.906706171 2039.998388013 2040.179455941 2040.246699508 2082.081262575 2079.556228837 2085.095694617 2083.880320105 2040.497194402 2040.207715649 2039.662635443 2040.382534856 2039.735945939 2039.457341050 2039.627692493 2040.035025127 2039.830758712 2040.246602460 2040.226618509 2040.054855800 2040.195735825 2038.495427050 2040.068833941 2038.775437019 2195.225478513 2039.419004567 2039.847073837 2080.454888421 2040.431703595 2038.504089913 2174.953024784 2113.877177654 2159.605718192 2039.650870412 2039.107516189 2039.085561435 2040.238829009 2040.383866959 2063.093384702 2040.535886691 2039.755422313 2041.134488369 2040.132304350 2039.905796460 2039.628765666 2039.898921669 2039.864418832 2039.586400711 2040.095470270 2040.133730965 2040.613428345 2040.725989509 2040.009541844 2040.549123098 2041.073123987 2039.479662226 2039.976260788 2040.003743239 2039.997292626 2039.626564765 2040.642317362 2040.448433228 2040.191136576 2040.556306490 2040.222221079 2040.849814632 2040.524128134 2039.741379781 2040.284088392 2039.710751228 2040.755006432 2040.460462614 2040.434090315 2040.807258750 2039.680040666 2040.401733181 2040.361891901 2040.320678580 2040.090350653 2040.309767393 2040.329599837 2040.071836965 2040.316928824 2040.032144614 2040.101146509 2040.090685386 2040.016591101 2040.076583438 2045.264875442 2046.995760245 2040.488125439 2040.240832978 2039.950671627 2040.087562069 2040.092093137 2059.093843726 2040.383677742 2058.657660049 2081.342211219 2039.945859990 2087.248217821 2040.064015404 2061.845311116 2059.470170343 2110.034391773 2039.693361719 2040.272909676 2040.127307806 2040.730783620 2100.881285416 2160.575838808 2155.470657006 2040.160315418 2044.822395947 2051.243770348 2040.191209449 2058.715038520 2094.820061318 2040.456645570 2084.396783494 2050.946867383 2057.866193487 2059.277410410 2039.813619305 2040.505954869 2086.915696783 2040.789324353 2101.486032757 2040.685722069 2040.389685729 2217.761264928 2040.338490369 2142.030638121 2075.622512648 2213.809313844 2093.509677354 2102.678119344 2093.621168702 2039.880182998 2045.896192255 2112.289727737 2213.717597183 2040.270645397 2066.507783760 2040.541450116 2040.966953046 2082.433858510 2112.064219960 2040.382219587 2206.683107002 2040.302707268 2060.009974160 2040.330908607 2108.098633708 2040.558989280 2040.999378644 2096.893948015 2041.124485660 2039.924299132 2039.792571216 2040.047835078 2040.083697602 2040.648688694 2040.479119407 2040.403308081 2040.431586572 2040.171944287 2040.142279713 2040.290584303 2040.337186341 2040.299258916 2040.411844726 2040.411947285 2040.471458852 2040.110597058 2040.441983674 2040.302316471 2040.583976816 2040.616112889 
    </DataArray>
    <DataArray Name="Velocity" type="Float32"  NumberOfComponents="3" Format="ascii">