<?xml version="1.0"?>
<VTKFile type="PolyData" version="0.1" byte_order="LittleEndian">
 <PolyData>
  <Piece Name ="SoilBlock" NumberOfPoints="250" NumberOfVerts="250">
   <Points>
    <DataArray Name="Position" type="Float32"  NumberOfComponents="3" Format="ascii">
    1.69001 0.509666 0 1.71112 0.511288 0 1.73109 0.509635 0 1.74966 0.508945 0 1.72639 0.529348 0 1.74824 0.534671 0 1.77335 0.508045 0 1.79411 0.508561 0 1.81541 0.50888 0 1.8355 0.509108 0 1.80213 0.528212 0 1.76338 0.526974 0 1.784 0.530727 0 1.7706 0.54937 0 1.79086 0.552781 0 1.8307 0.550639 0 1.81098 0.548388 0 1.84179 0.52967 0 1.82248 0.529817 0 1.85605 0.508902 0 1.87637 0.509262 0 1.89649 0.50912 0 1.91643 0.50956 0 1.93621 0.509357 0 1.86135 0.529405 0 1.85243 0.549425 0 1.87204 0.549845 0 1.88114 0.529836 0 1.8937 0.549482 0 1.91273 0.549639 0 1.90109 0.529299 0 1.94186 0.529547 0 1.92154 0.52975 0 1.93343 0.549606 0 1.95613 0.50955 0 1.97576 0.509539 0 1.9953 0.509838 0 2.03383 0.510311 0 2.01495 0.509544 0 1.95237 0.549719 0 1.96212 0.52963 0 1.98295 0.529919 0 1.97357 0.548832 0 2.02495 0.531014 0 2.00328 0.529127 0 2.01282 0.54732 0 1.9921 0.550787 0 2.03172 0.552407 0 2.05402 0.508572 0 2.07183 0.512019 0 2.09155 0.50733 0 2.12721 0.507317 0 2.10923 0.5133 0 2.07183 0.55311 0 2.0447 0.528402 0 2.05248 0.546251 0 2.0669 0.532139 0 2.08752 0.528248 0 2.11132 0.531723 0 2.10903 0.554241 0 2.09241 0.545434 0 2.16509 0.508056 0 2.14646 0.512181 0 2.20502 0.508754 0 2.18538 0.510217 0 2.16605 0.547696 0 2.1286 0.545888 0 2.15552 0.53113 0 2.13367 0.528658 0 2.1476 0.552987 0 2.1876 0.551337 0 2.19535 0.53133 0 2.17628 0.528955 0 2.21551 0.528369 0 2.20834 0.547843 0 2.22558 0.509914 0 2.24454 0.50871 0 2.26602 0.509963 0 2.30396 0.510554 0 2.28463 0.508984 0 2.2358 0.531595 0 2.25514 0.527469 0 2.22952 0.549347 0 2.25108 0.551126 0 2.27453 0.532227 0 2.29392 0.528136 0 2.29928 0.543545 0 2.2708 0.550168 0 2.29645 0.561532 0 2.32107 0.509443 0 2.34223 0.509602 0 2.36343 0.508065 0 2.37605 0.517779 0 2.39605 0.507582 0 2.34541 0.528664 0 2.32874 0.561311 0 2.31967 0.544698 0 2.32415 0.528784 0 2.34408 0.550261 0 2.37846 0.536781 0 2.3844 0.559607 0 2.36095 0.538595 0 2.40318 0.52344 0 2.40259 0.560303 0 2.39683 0.542397 0 2.42207 0.506617 0 2.43743 0.511382 0 2.48429 0.512481 0 2.45743 0.509725 0 2.4371 0.530195 0 2.43088 0.549331 0 2.41721 0.53019 0 2.44724 0.55394 0 2.41562 0.556921 0 2.46765 0.524273 0 2.47531 0.542766 0 2.48746 0.538487 0 2.45594 0.538059 0 2.50742 0.511544 0 2.52865 0.511283 0 2.55148 0.510944 0 2.57354 0.511882 0 2.52559 0.536816 0 2.51218 0.547465 0 2.54075 0.531592 0 2.50427 0.532102 0 2.55053 0.545378 0 2.57737 0.540759 0 2.56452 0.533087 0 2.59426 0.51152 0 2.61349 0.510576 0 2.63436 0.511369 0 2.65531 0.511152 0 2.67563 0.507862 0 2.59264 0.534475 0 2.62449 0.534986 0 2.60923 0.539325 0 2.64133 0.533419 0 2.65604 0.53954 0 2.67334 0.531093 0 2.71959 0.510656 0 2.69706 0.512992 0 2.76622 0.511829 0 2.74315 0.511788 0 2.70969 0.535934 0 2.69168 0.537213 0 2.76698 0.534892 0 2.74564 0.535959 0 2.72644 0.5335 0 1.85007 0.589096 0 1.82869 0.574032 0 1.80793 0.568053 0 1.84545 0.567798 0 1.88961 0.586624 0 1.87084 0.593897 0 1.88414 0.566959 0 1.86553 0.572484 0 1.88865 0.60788 0 1.90914 0.59261 0 1.90511 0.572035 0 1.92376 0.567865 0 1.93057 0.586358 0 1.92706 0.605643 0 1.90966 0.61424 0 1.92945 0.627852 0 1.97032 0.585676 0 1.9453 0.571718 0 1.98957 0.592283 0 1.98582 0.571914 0 1.94989 0.592788 0 1.96721 0.60458 0 1.96423 0.567141 0 2.00989 0.58505 0 2.03 0.593272 0 2.00598 0.566692 0 2.02664 0.572919 0 2.00701 0.604419 0 1.96828 0.624012 0 1.98733 0.613498 0 1.9462 0.613621 0 1.95073 0.633963 0 1.96972 0.646689 0 1.98572 0.634124 0 2.02824 0.613059 0 2.02838 0.63399 0 1.99667 0.646609 0 2.00725 0.623531 0 2.01488 0.637643 0 2.04987 0.583766 0 2.06768 0.574042 0 2.07139 0.593316 0 2.04902 0.602986 0 2.04731 0.565221 0 2.10638 0.594119 0 2.08528 0.605654 0 2.09324 0.583935 0 2.08689 0.566396 0 2.11188 0.572023 0 2.0449 0.62516 0 2.06365 0.614296 0 2.05477 0.637369 0 2.07672 0.627314 0 2.12072 0.621069 0 2.10396 0.614867 0 2.12784 0.620046 0 2.09353 0.628309 0 2.13035 0.585147 0 2.15367 0.572817 0 2.12851 0.602622 0 2.16404 0.584715 0 2.13234 0.567121 0 2.15006 0.597987 0 2.18504 0.592908 0 2.19521 0.57317 0 2.21435 0.565086 0 2.1782 0.604525 0 2.17639 0.566739 0 2.2025 0.58889 0 2.21155 0.604677 0 2.1711 0.61418 0 2.15423 0.614336 0 2.23982 0.590721 0 2.25369 0.595902 0 2.22801 0.575595 0 2.24662 0.566889 0 2.22366 0.59668 0 2.29637 0.583154 0 2.30956 0.582733 0 2.26623 0.587002 0 2.2782 0.565777 0 2.26801 0.577781 0 2.32013 0.570597 0 2.34213 0.576852 0 2.35498 0.566191 0 2.37047 0.565209 0 2.78968 0.511705 0 2.81382 0.51069 0 2.83947 0.509054 0 2.81441 0.532775 0 2.79003 0.534731 0 2.85959 0.524221 0 2.83815 0.53123 0 2.87094 0.506477 0 2.90427 0.514261 0 2.94869 0.510722 0 2.92771 0.517606 0 2.88485 0.525701 0 2.988 0.506947 0 3.01706 0.508451 0 2.97052 0.519933 0 
    </DataArray>
   </Points>
   <PointData  Vectors="vector">
    <DataArray Name="SortedParticle_ID" type="Int32" Format="ascii">
    0 1 2 3 4 5 6 7 8 9 10 11 12 13 14 15 16 17 18 19 20 21 22 23 24 25 26 27 28 29 30 31 32 33 34 35 36 37 38 39 40 41 42 43 44 45 46 47 48 49 50 51 52 53 54 55 56 57 58 59 60 61 62 63 64 65 66 67 68 69 70 71 72 73 74 75 76 77 78 79 80 81 82 83 84 85 86 87 88 89 90 91 92 93 94 95 96 97 98 99 100 101 102 103 104 105 106 107 108 109 110 111 112 113 114 115 116 117 118 119 120 121 122 123 124 125 126 127 128 129 130 131 132 133 134 135 136 137 138 139 140 141 142 143 144 145 146 147 148 149 150 151 152 153 154 155 156 157 158 159 160 161 162 163 164 165 166 167 168 169 170 171 172 173 174 175 176 177 178 179 180 181 182 183 184 185 186 187 188 189 190 191 192 193 194 195 196 197 198 199 200 201 202 203 204 205 206 207 208 209 210 211 212 213 214 215 216 217 218 219 220 221 222 223 224 225 226 227 228 229 230 231 232 233 234 235 236 237 238 239 240 241 242 243 244 245 246 247 248 249 
    </DataArray>
    <DataArray Name="OriginalID" type="Int32" Format="ascii">
    0 1 2 4 3 5 6 9 12 16 13 7 10 8 11 18 14 21 17 20 25 30 36 42 26 22 27 31 32 38 37 50 43 44 49 56 64 81 72 51 57 65 58 82 73 74 66 83 90 100 110 130 120 102 91 92 101 111 121 122 112 150 140 169 160 152 132 141 131 142 162 161 151 170 171 178 186 194 208 201 179 187 180 188 195 202 203 196 210 214 220 225 226 230 215 217 216 209 227 231 127 221 238 190 235 234 241 156 242 236 166 232 119 146 191 137 211 128 138 183 157 167 165 129 175 222 139 147 205 184 212 223 239 244 148 198 149 228 158 159 199 176 200 218 192 168 185 177 206 24 19 15 23 34 29 33 28 35 40 39 45 46 47 41 48 60 52 68 67 53 61 59 76 85 75 84 77 62 69 54 55 63 70 86 87 71 78 79 94 103 104 95 93 124 115 114 113 123 96 105 80 88 116 97 125 89 134 143 135 154 133 144 164 163 172 145 153 173 99 106 98 155 108 181 189 107 117 136 126 204 182 174 109 197 118 213 233 240 207 193 224 219 246 237 245 243 229 248 249 247 
    </DataArray>
    <DataArray Name="ErodedLabel" type="Int32" Format="ascii">
    0 0 0 1 0 0 0 0 0 0 0 0 0 0 0 0 0 0 0 0 0 0 0 0 0 0 0 0 0 0 0 0 0 0 0 0 0 0 0 0 0 0 0 0 0 0 0 0 0 0 0 0 0 0 0 0 0 0 0 0 0 0 0 0 0 0 0 0 0 0 0 0 0 0 0 0 0 0 0 0 0 0 0 0 0 0 0 0 1 0 0 0 0 0 0 1 1 0 1 1 1 1 0 1 1 0 0 1 1 1 1 1 1 1 1 1 1 1 1 1 1 1 1 1 1 1 1 1 1 1 1 1 1 0 1 1 1 1 1 1 1 1 1 1 1 1 0 1 1 0 0 0 0 0 0 0 0 0 0 0 0 0 0 0 0 0 0 0 0 0 0 0 0 0 0 0 0 0 0 0 0 1 1 1 1 1 1 1 0 0 0 0 0 1 1 0 0 0 1 1 1 1 1 1 1 1 0 0 1 1 0 1 1 0 0 1 0 1 1 1 1 1 1 1 1 1 1 1 1 1 1 1 1 1 1 1 1 1 1 1 1 1 1 0 1 1 1 1 1 0 
    </DataArray>
    <DataArray Name="Indicator" type="Int32" Format="ascii">
    1 1 1 0 1 1 0 0 0 0 0 1 1 1 1 0 1 0 0 0 0 0 0 0 0 0 0 0 0 0 0 0 0 0 0 0 0 0 0 0 0 0 0 0 0 0 0 0 0 0 0 0 0 0 0 0 0 0 0 0 0 0 0 0 0 0 0 0 0 0 0 0 0 0 0 0 0 0 0 0 0 0 0 0 0 0 0 0 1 0 0 0 0 0 0 1 0 0 1 0 1 0 0 1 1 0 0 0 0 0 1 0 1 1 1 1 1 1 0 0 0 0 1 1 1 1 1 1 1 0 0 0 0 0 1 1 1 1 1 1 0 0 0 0 1 1 1 1 1 1 1 1 1 1 1 0 1 1 1 0 0 0 1 1 1 0 0 0 0 0 0 0 0 0 0 0 0 1 0 1 1 1 1 1 1 1 1 1 0 0 0 0 0 0 0 0 0 0 1 1 1 1 1 1 1 1 0 0 1 0 0 1 1 0 0 1 0 1 1 1 1 1 1 1 0 1 1 1 1 0 1 1 1 1 1 0 1 1 1 1 1 1 1 1 1 1 1 1 1 1 
    </DataArray>
    <DataArray Name="VerticalStress" type="Float32" Format="ascii">
    -901.250386291 -617.146070354 -836.702462157 -1022.686948513 -318.223963888 -176.154356336 -1709.962650221 -1893.130591262 -1850.558804241 -1760.528571800 -941.711058235 -593.672594026 -617.400675105 -145.619921000 -251.698176306 -920.079572892 -533.146755686 -1729.822023788 -1330.317448563 -1851.620301190 -2023.735950247 -2348.760944444 -2630.719690443 -2805.542267943 -1969.214299002 -1425.166245958 -1602.716845987 -2013.514017005 -1710.751151696 -1629.942107347 -2007.288462656 -2073.140524876 -1988.901169957 -1627.607068689 -2850.910913070 -2804.656292388 -2819.863972442 -2768.593965001 -2703.975712554 -1724.924852011 -2240.394101268 -2420.984451606 -1934.698020874 -2371.798958167 -2465.323070969 -2015.662540817 -1996.999908064 -1920.152128838 -2656.268823636 -2693.409160459 -2720.165514407 -2525.044080104 -2538.326817239 -1949.946371593 -2377.163581716 -2191.097671228 -2327.688983644 -2336.565524608 -2178.039946279 -1593.220340959 -1779.690298759 -2470.175698124 -2482.032729164 -2401.640563441 -2546.811869591 -1379.422806096 -1980.714765701 -1990.589928147 -2253.704502009 -1789.301071256 -1157.339987098 -1942.623592471 -1877.537108900 -2204.763314425 -1725.672757687 -2221.448303343 -2187.338362607 -2238.939100765 -1609.215281390 -1894.256338371 -1669.696600581 -1481.458507887 -1342.862721342 -1002.796121026 -1826.996672701 -1308.735250036 -1296.863014086 -1370.155342064 -654.071683631 -1921.048376923 -2085.876207741 -1683.757616009 -1107.264697741 -1606.038662021 -1492.551333818 -314.584820579 -1211.985073751 -1553.165849595 -928.909766801 -652.295102138 -314.846282603 -751.975228294 -1303.512190482 -97.113393896 -836.350678544 -1418.827884159 -1260.369851397 -1707.446858079 -1487.325297807 -482.797643078 -428.210790019 -799.850711695 -77.642970864 -250.596068257 -156.491590293 -244.876352045 -269.077141140 -754.652800346 -1325.392180615 -1260.641518148 -1271.775607904 -1245.898376961 -288.204836470 -241.249552790 -469.786402166 -409.873417510 -164.434137652 -178.974530560 -389.133173838 -1049.915086398 -980.539033708 -1149.279699691 -938.370579690 -902.175264502 -393.516361928 -331.785716652 -331.772818697 -267.109934127 -288.387383419 -508.775496093 -1078.681990877 -1104.639152450 -996.553338384 -1046.283210718 -243.202152520 -232.901363311 -296.622972847 -292.311212933 -267.631329706 -94.180052955 -243.261581473 -288.304365504 -508.588134676 -442.683125501 -161.249585881 -1022.531169165 -485.898656158 -208.063528573 -702.781579613 -1265.313081268 -1602.291697294 -1349.317025202 -426.165322545 -110.107973014 -12.965991690 -1698.067407137 -1762.472124214 -1273.575901269 -1611.773155289 -1408.817880614 -1093.611922870 -1792.905350526 -976.874863948 -988.374179141 -1482.273815499 -1334.414030801 -1043.204503633 -408.127460882 -1025.911005998 -348.898490617 -1.917165563 -118.314306673 -310.949749155 -1030.179375274 -180.218484412 -220.479051476 -444.996662612 -230.261193896 -1295.729046888 -1620.959173514 -1064.782287326 -974.898301233 -1804.407949438 -802.609095272 -692.222326285 -937.121040223 -1544.801345565 -1129.041017274 -277.201606240 -586.347341039 -240.414309038 -148.891685633 -73.674542838 -427.723827028 28.386666035 -207.543058325 -1314.489623103 -1379.101928294 -1077.118490356 -693.335394827 -1527.556526940 -489.614428439 -898.325524417 -1113.458883547 -1444.135954817 -173.845520196 -1057.030224504 -166.770525450 -283.189522697 -174.539872068 -176.654508043 -190.493370181 -238.060640550 -1030.752477311 -561.264531993 -154.523189426 -97.732602468 -222.923214345 -24.080405368 -742.009377020 -774.353145008 -414.517442171 -79.027283433 -149.811874326 -334.818935713 -948.786054038 -897.022565427 -877.068549412 -357.661695461 -329.539260266 -415.297741698 -326.401398062 -759.548102481 -908.511044566 -662.457469365 -581.700906688 -413.516489075 -478.484885251 -396.474662130 -492.397109092 
    </DataArray>
    <DataArray Name="FrictionAngle" type="Float32" Format="ascii">
    0.523598776 0.523598776 0.523598776 0.009705040 0.523598776 0.523598776 0.523598776 0.523598776 0.523598776 0.523598776 0.523598776 0.523598776 0.523598776 0.523598776 0.523598776 0.523598776 0.523598776 0.523598776 0.523598776 0.523598776 0.523598776 0.523598776 0.523598776 0.523598776 0.523598776 0.523598776 0.523598776 0.523598776 0.523598776 0.523598776 0.523598776 0.523598776 0.523598776 0.523598776 0.523598776 0.523598776 0.523598776 0.523598776 0.523598776 0.523598776 0.523598776 0.523598776 0.523598776 0.523598776 0.523598776 0.523598776 0.523598776 0.523598776 0.523598776 0.523598776 0.523598776 0.523598776 0.523598776 0.523598776 0.523598776 0.523598776 0.523598776 0.523598776 0.523598776 0.523598776 0.523598776 0.523598776 0.523598776 0.523598776 0.523598776 0.523598776 0.523598776 0.523598776 0.523598776 0.523598776 0.523598776 0.523598776 0.523598776 0.523598776 0.523598776 0.523598776 0.523598776 0.523598776 0.523598776 0.523598776 0.523598776 0.523598776 0.523598776 0.523598776 0.523598776 0.523598776 0.523598776 0.523598776 0.003285248 0.523598776 0.523598776 0.523598776 0.523598776 0.523598776 0.523598776 0.000715402 0.182878997 0.523598776 0.000040873 0.001831659 0.001099835 0.007408022 0.523598776 0.001353471 0.001676308 0.523598776 0.458307299 0.001147341 0.003784792 0.000190287 0.000856249 0.000740413 0.000936246 0.000996306 0.000384219 0.000765090 0.000073594 0.001015606 0.001050261 0.001171621 0.000654409 0.001252814 0.001102721 0.000927451 0.000936713 0.000859086 0.000907237 0.000965483 0.000907716 0.001428194 0.001712517 0.001696137 0.000734185 0.007451441 0.000982474 0.000414862 0.000874239 0.001025116 0.001237620 0.001047813 0.000845724 0.000621798 0.000651084 0.000121432 0.001190597 0.001097552 0.001458893 0.001428140 0.001429713 0.523598776 0.523598776 0.523598776 0.523598776 0.523598776 0.523598776 0.523598776 0.523598776 0.523598776 0.523598776 0.523598776 0.523598776 0.523598776 0.523598776 0.523598776 0.523598776 0.523598776 0.523598776 0.523598776 0.523598776 0.523598776 0.523598776 0.523598776 0.523598776 0.523598776 0.523598776 0.523598776 0.523598776 0.356749850 0.462719487 0.437941340 0.466189844 0.166433627 0.046743952 0.058052269 0.009838496 0.028246438 0.005689430 0.024158165 0.523598776 0.523598776 0.523598776 0.239444467 0.523598776 0.112884490 0.010878792 0.523598776 0.523598776 0.523598776 0.010904690 0.002418832 0.008421770 0.005394871 0.001797462 0.003939803 0.000955817 0.004956088 0.256802277 0.523598776 0.003937796 0.045508789 0.523598776 0.004940091 0.002919495 0.362103864 0.523598776 0.000643656 0.523598776 0.000779132 0.001848055 0.002878205 0.003255059 0.001552167 0.001529982 0.003140295 0.015600790 0.001934898 0.001489605 0.001478704 0.001319234 0.001965585 0.001137594 0.000757230 0.001299831 0.000873905 0.000440437 0.001515474 0.001783546 0.002039932 0.001639506 0.001635179 0.001854158 0.001723701 0.002397175 0.002968863 0.002683802 0.003489898 0.001961366 0.001866184 0.001372291 0.001665556 
    </DataArray>
    <DataArray Name="Cohesion" type="Float32" Format="ascii">
    400.000000000 400.000000000 400.000000000 6.724060009 400.000000000 400.000000000 400.000000000 400.000000000 400.000000000 400.000000000 400.000000000 400.000000000 400.000000000 400.000000000 400.000000000 400.000000000 400.000000000 400.000000000 400.000000000 400.000000000 400.000000000 400.000000000 400.000000000 400.000000000 400.000000000 400.000000000 400.000000000 400.000000000 400.000000000 400.000000000 400.000000000 400.000000000 400.000000000 400.000000000 400.000000000 400.000000000 400.000000000 400.000000000 400.000000000 400.000000000 400.000000000 400.000000000 400.000000000 400.000000000 400.000000000 400.000000000 400.000000000 400.000000000 400.000000000 400.000000000 400.000000000 400.000000000 400.000000000 400.000000000 400.000000000 400.000000000 400.000000000 400.000000000 400.000000000 400.000000000 400.000000000 400.000000000 400.000000000 400.000000000 400.000000000 400.000000000 400.000000000 400.000000000 400.000000000 400.000000000 400.000000000 400.000000000 400.000000000 400.000000000 400.000000000 400.000000000 400.000000000 400.000000000 400.000000000 400.000000000 400.000000000 400.000000000 400.000000000 400.000000000 400.000000000 400.000000000 400.000000000 400.000000000 2.276094736 400.000000000 400.000000000 400.000000000 400.000000000 400.000000000 400.000000000 0.495644937 128.133949048 400.000000000 0.028317573 1.269011943 0.761988149 5.132522412 400.000000000 0.937712445 1.161381539 400.000000000 341.797589941 0.794901660 2.622193201 0.131834739 0.593226977 0.512973584 0.648650459 0.690260991 0.266194813 0.530069830 0.050987373 0.703632702 0.727642638 0.811723455 0.453387683 0.867975185 0.763987597 0.642556933 0.648973846 0.595192234 0.628552519 0.668906335 0.628884227 0.989482638 1.186467699 1.175119436 0.508658049 5.162605037 0.680678424 0.287424989 0.605690769 0.710221350 0.857449055 0.725946676 0.585935024 0.430794257 0.451084100 0.084130308 0.824870076 0.760406587 1.010751683 0.989444754 0.990534830 400.000000000 400.000000000 400.000000000 400.000000000 400.000000000 400.000000000 400.000000000 400.000000000 400.000000000 400.000000000 400.000000000 400.000000000 400.000000000 400.000000000 400.000000000 400.000000000 400.000000000 400.000000000 400.000000000 400.000000000 400.000000000 400.000000000 400.000000000 400.000000000 400.000000000 400.000000000 400.000000000 400.000000000 258.211879061 345.606757152 324.425606854 348.614608608 116.385218247 32.408768037 40.265033550 6.816530059 19.574912292 3.941795037 16.740524592 400.000000000 400.000000000 400.000000000 169.136826733 400.000000000 78.542573017 7.537345381 400.000000000 400.000000000 400.000000000 7.555289980 1.675819498 5.834911063 3.737712562 1.245319533 2.729590018 0.662209490 3.433706540 181.934909393 400.000000000 2.728198913 31.551197953 400.000000000 3.422623611 2.022690967 262.444978048 400.000000000 0.445937851 400.000000000 0.539798670 1.280371459 1.994084132 2.255178963 1.075374037 1.060003514 2.175667109 10.809421133 1.340538481 1.032029065 1.024477232 0.913992596 1.361798946 0.788148613 0.524624654 0.900550027 0.605458979 0.305143732 1.049952144 1.235678370 1.413308122 1.135884376 1.132886079 1.284599639 1.194216585 1.660814589 2.056894391 1.859396791 2.417882333 1.358875848 1.292931784 0.950751900 1.153932156 
    </DataArray>
    <DataArray Name="Pressure" type="Float32" Format="ascii">
    1177.897578048 860.145378374 828.272066557 920.579274758 713.674535500 618.873298820 868.895031848 1011.728686268 1236.274964980 1456.616575405 1070.703901102 815.913235124 960.456396028 590.084244478 705.974565737 706.697637140 883.376442080 888.114386877 998.592481943 1634.982147920 1704.117098038 1729.608770729 1693.979614077 1733.044469179 994.927971029 678.626243607 781.152788096 1175.240137347 981.887931840 1203.264153697 1405.537161887 1727.562067068 1618.832433470 1405.120191899 1794.256482487 1835.111095008 1906.053788489 1996.515105803 1906.983410599 1460.271938113 1664.972834678 1559.281829616 1373.359761938 1583.681719765 1552.623373928 1440.555978318 1317.153031435 1325.103205598 1950.613616026 1926.051035365 1913.006289749 1826.841680745 1790.590300199 1191.328485927 1609.192353111 1252.550105440 1577.693072934 1682.106442825 1596.869443722 1363.504183651 1453.473290993 1689.496268604 1770.251986432 1749.145284678 1761.641751360 1257.372537201 1213.284691503 1417.678495262 1448.277936823 1056.941382579 1181.550973154 1470.396706985 1657.535488579 1258.417325103 1122.913550396 1699.727499543 1637.153195020 1734.420462778 1291.237967331 1365.923842215 1079.808872651 1357.218411944 807.368441337 912.467417469 1281.371881929 988.796825752 888.621890116 995.774976669 622.838907314 1362.518114679 1497.311928445 1190.321521420 1075.976299790 1583.789971271 1197.645265666 348.981875140 889.839177298 1062.203309327 1005.756482180 647.647332029 314.185620713 860.058759677 787.330636807 74.903036019 746.835380459 1346.995582547 863.725874315 1706.584037478 1486.210938281 496.435635181 422.247038891 688.313311066 94.010974028 224.016047440 171.235754109 242.733806407 261.808413792 781.897709731 1326.673710189 1260.103599362 1271.023834235 1245.239007532 290.384293473 242.603375591 471.768728651 409.728237747 168.221394697 179.344595008 391.112404690 1049.716737818 980.540219663 1146.629218250 938.308998491 900.859731109 392.586494447 332.702289552 332.242140032 267.405636706 289.538189241 508.575431471 1079.116865448 1103.601211138 995.699369953 1046.563342786 243.318429544 233.416681084 296.832424405 293.461303750 266.506777098 604.836101226 546.507104927 550.988855204 728.853612391 779.614210670 664.203828926 847.525559331 851.620699884 474.777767208 681.469341961 733.362496458 849.640255442 584.884114285 701.028756224 522.778383522 529.324043904 662.624789584 836.081644453 786.522531866 1094.153441889 593.092643397 603.201792082 1003.266329350 1108.231068254 954.348368878 1409.640359712 1248.166270251 815.506240009 631.183887265 677.337415491 768.059122252 468.243874014 201.155161253 348.267408528 878.225244416 92.677569794 184.628904105 310.411961664 123.571265123 848.746516988 912.439791421 862.942353314 770.303851533 989.061264697 815.480586404 737.860959666 964.308604554 1312.508712524 1088.218341235 237.050653611 567.138645277 235.323888272 143.161395483 58.379233533 403.228108413 -37.212528971 187.877527117 932.878523883 1054.569865465 1062.327198199 670.897160141 980.266752398 437.606396969 938.128422126 958.752877006 909.123774794 192.789327325 900.129572430 128.045255432 270.002154865 181.169676697 179.153686817 228.726787522 267.687481171 963.510532616 608.731430900 142.734031047 113.057671113 234.227168743 63.443319939 761.581129958 840.821741473 429.922846736 101.137004069 179.060392239 350.555258393 948.092659705 894.561716017 874.661015237 358.207455196 329.796273638 414.372113676 326.200511830 762.953539025 909.452289988 661.969728825 582.053366192 413.323927182 477.574367753 393.156358941 492.307108274 
    </DataArray>
    <DataArray Name="Density" type="Float32" Format="ascii">
    2040.611231014 2040.446754168 2040.352893044 2040.162395882 2040.333353833 2040.497671923 2040.186053680 2040.121469984 2040.156696013 2043.771423409 2040.106680915 2040.132774678 2040.078777126 2040.391688087 2040.331706827 2040.096333886 2040.097641794 2040.078485075 2040.009259370 2042.548083471 2044.592443633 2058.003471292 2057.383724244 2059.141819835 2040.004776257 2039.983075970 2040.028215661 2040.022129706 2039.941484295 2040.014185525 2040.044905393 2039.966108424 2039.960087911 2040.011506461 2061.692243232 2062.759177880 2072.941590072 2073.001106537 2063.175836620 2039.984651737 2040.019525062 2039.981244920 2044.705349728 2040.056804097 2040.048233726 2050.669750541 2040.078173590 2040.055239827 2078.823204139 2057.060818655 2103.775083786 2096.688885135 2055.304693223 2040.075583785 2040.112795917 2056.333617852 2039.944744076 2039.977748169 2039.901200920 2040.022529435 2040.217749571 2058.398208072 2053.912331543 2044.068999886 2041.805329924 2040.225329033 2039.995663296 2040.087522465 2039.997345650 2040.064271177 2040.416733224 2040.030582181 2039.776944471 2039.957599038 2071.907030320 2055.041357418 2059.815703982 2059.423857347 2096.078141404 2114.196537524 2040.398851222 2040.191610937 2040.335796132 2040.300843573 2039.742346095 2040.247470248 2039.751011607 2039.876257327 2040.013130691 2075.894407155 2039.786797958 2040.414917764 2040.246851973 2039.400106269 2039.838131818 2297.853433006 2046.236192405 2040.026343661 2105.578282110 2040.422109247 2040.353506093 2040.063900137 2079.855798070 2041.033446948 2154.735727922 2160.365626441 2132.825858594 2038.173657458 2038.850469228 2093.029381960 2039.920062485 2096.475047863 2040.968730506 2040.498454399 2110.399528427 2040.614821767 2040.771828018 2081.288551242 2039.689009550 2039.633878281 2039.576030921 2039.450262545 2040.735225609 2040.319943453 2040.358348219 2040.695247506 2040.590149147 2040.756172268 2040.507405049 2039.949402520 2040.111570957 2039.433009604 2040.006664410 2040.383538733 2040.419115347 2040.539235736 2040.360157132 2040.825371447 2040.428015647 2040.123951293 2039.783501992 2039.464165593 2039.930288027 2039.788111750 2040.629131508 2040.672891594 2040.561078343 2040.496140998 2040.678425465 2040.316900480 2040.392327876 2040.292709996 2040.109493821 2040.127671965 2040.243113918 2040.694555541 2040.102054961 2040.325127988 2039.940228330 2040.101444946 2047.405502444 2048.963805173 2040.125175501 2040.328024446 2040.325538651 2080.518750164 2039.981092403 2041.047513630 2039.973237227 2039.915866825 2048.094522208 2048.672324459 2069.101197025 2040.192513192 2053.531284382 2040.064163890 2043.784322780 2053.782107779 2041.196487822 2039.941226002 2040.342958468 2040.478919341 2070.076116519 2078.289027520 2040.787515115 2040.237931152 2194.104628896 2040.511963057 2069.276861305 2040.003356116 2039.807607422 2076.535914830 2063.494030309 2039.972899656 2072.163915171 2059.562266681 2039.682963801 2040.278050061 2130.559640239 2088.274311363 2040.216457838 2040.842198797 2198.734569983 2164.622161046 2127.130453221 2040.412887645 2039.732793563 2039.233450092 2182.406301944 2086.773833829 2044.202939535 2066.275910157 2195.867037120 2068.067620197 2048.295277632 2183.454855775 2040.555423889 2142.103493207 2040.152304694 2040.500591990 2040.544972501 2112.895768960 2040.271420249 2079.039858892 2040.486882766 2040.810366883 2040.923939552 2040.306287283 2171.618659717 2179.168194742 2330.923739912 2197.755528729 2040.758677445 2040.916923857 2040.141512602 2039.995476827 2040.078339058 2040.001883650 2040.411023665 2040.468228037 2040.458556952 2040.471819238 2040.245267617 2039.999473547 2040.385682510 2040.509965722 2040.503506948 2040.574356014 2040.592663644 2040.322382797 
    </DataArray>
    <DataArray Name="Velocity" type="Float32"  NumberOfComponents="3" Format="ascii">