<?xml version="1.0"?>
<VTKFile type="PolyData" version="0.1" byte_order="LittleEndian">
 <PolyData>
  <Piece Name ="SoilBlock" NumberOfPoints="250" NumberOfVerts="250">
   <Points>
    <DataArray Name="Position" type="Float32"  NumberOfComponents="3" Format="ascii">
    1.71075 0.510654 0 1.69017 0.509852 0 1.75039 0.508904 0 1.73004 0.509141 0 1.75011 0.532527 0 1.7294 0.529628 0 1.79135 0.509322 0 1.77101 0.508755 0 1.83168 0.509585 0 1.812 0.509152 0 1.77001 0.549288 0 1.7912 0.552236 0 1.76788 0.529381 0 1.78796 0.531039 0 1.81079 0.548177 0 1.84674 0.528678 0 1.85131 0.548288 0 1.80697 0.528699 0 1.82785 0.531094 0 1.82981 0.55183 0 1.893 0.509132 0 1.85236 0.509015 0 1.87232 0.509605 0 1.9331 0.509027 0 1.91247 0.50992 0 1.87114 0.551983 0 1.88581 0.528389 0 1.892 0.547794 0 1.86684 0.53134 0 1.9318 0.547541 0 1.91085 0.552348 0 1.90663 0.531264 0 1.92587 0.528366 0 1.95244 0.510116 0 1.97318 0.508957 0 2.03158 0.51107 0 2.0128 0.508665 0 1.99214 0.510592 0 1.98694 0.531827 0 1.94666 0.531524 0 1.97187 0.547047 0 1.9511 0.552636 0 1.96582 0.52811 0 1.99084 0.552985 0 2.03055 0.553459 0 2.02778 0.532176 0 2.0065 0.527906 0 2.01149 0.546482 0 2.07121 0.511444 0 2.05218 0.508361 0 2.10981 0.512268 0 2.0913 0.508073 0 2.05091 0.546463 0 2.06818 0.532713 0 2.07122 0.553131 0 2.04737 0.527593 0 2.10971 0.554271 0 2.09178 0.545821 0 2.08787 0.52786 0 2.11032 0.531986 0 2.12871 0.508054 0 2.14859 0.511491 0 2.16767 0.508355 0 2.20794 0.508605 0 2.18845 0.510627 0 2.16758 0.546957 0 2.15223 0.532621 0 2.13192 0.527835 0 2.14856 0.553818 0 2.12863 0.54583 0 2.17313 0.527482 0 2.21206 0.546045 0 2.19 0.552363 0 2.1914 0.533286 0 2.21137 0.527896 0 2.24637 0.508564 0 2.22755 0.511208 0 2.28688 0.50913 0 2.26759 0.509858 0 2.30741 0.509892 0 2.25651 0.563346 0 2.24511 0.546552 0 2.23402 0.530709 0 2.25513 0.528747 0 2.22813 0.555325 0 2.27079 0.553458 0 2.30914 0.551988 0 2.27177 0.532385 0 2.29409 0.527505 0 2.28938 0.546186 0 2.34533 0.510414 0 2.32627 0.509222 0 2.38846 0.507589 0 2.36413 0.510071 0 2.35692 0.547553 0 2.33451 0.528775 0 2.33193 0.546208 0 2.31313 0.53243 0 2.40227 0.529759 0 2.3587 0.529284 0 2.37859 0.52502 0 2.3893 0.54137 0 2.40283 0.559811 0 2.37314 0.551283 0 2.42371 0.514684 0 2.4102 0.511035 0 2.43772 0.509346 0 2.46214 0.510781 0 2.48485 0.517361 0 2.44435 0.54359 0 2.43773 0.560801 0 2.41949 0.553386 0 2.44709 0.528875 0 2.42128 0.53699 0 2.46588 0.547736 0 2.47389 0.533554 0 2.49205 0.544045 0 2.52413 0.514259 0 2.50052 0.506597 0 2.54765 0.512139 0 2.57448 0.512324 0 2.52627 0.53942 0 2.50814 0.532965 0 2.54665 0.538829 0 2.56347 0.53136 0 2.5832 0.536361 0 2.59942 0.505742 0 2.67245 0.508681 0 2.6425 0.512417 0 2.62373 0.520644 0 2.6028 0.528341 0 2.66282 0.523749 0 2.69898 0.508638 0 1.83044 0.572857 0 1.80863 0.568626 0 1.84829 0.567481 0 1.84939 0.588889 0 1.88872 0.608328 0 1.89022 0.586623 0 1.87122 0.592993 0 1.88737 0.56687 0 1.86791 0.572921 0 1.92869 0.606092 0 1.90895 0.593306 0 1.90843 0.573289 0 1.92727 0.566611 0 1.93058 0.58631 0 1.92924 0.628328 0 1.91101 0.613263 0 1.98824 0.573484 0 1.95056 0.593532 0 1.96814 0.605556 0 1.98964 0.593808 0 1.96726 0.566242 0 1.97061 0.585472 0 1.94765 0.573438 0 2.00769 0.566037 0 2.01029 0.585233 0 2.02977 0.593995 0 2.02855 0.57338 0 2.00798 0.605057 0 1.98906 0.614054 0 1.94797 0.613723 0 1.9513 0.633286 0 1.96884 0.64781 0 1.98871 0.633467 0 1.96979 0.625474 0 2.0296 0.652324 0 2.02904 0.613298 0 2.02912 0.633493 0 1.99133 0.65293 0 2.01 0.62485 0 2.0088 0.645581 0 2.03074 0.672524 0 2.0093 0.66756 0 2.04872 0.565516 0 2.04941 0.585432 0 2.0681 0.574012 0 2.0716 0.592846 0 2.04942 0.604482 0 2.10914 0.594486 0 2.0867 0.605896 0 2.09175 0.584567 0 2.08759 0.565977 0 2.11021 0.57282 0 2.04881 0.625084 0 2.06769 0.613947 0 2.05001 0.643653 0 2.07224 0.632456 0 2.06732 0.652245 0 2.11163 0.652491 0 2.08721 0.646685 0 2.1118 0.610758 0 2.10744 0.633855 0 2.12595 0.626866 0 2.09236 0.62344 0 2.13184 0.565951 0 2.14681 0.595094 0 2.17319 0.565361 0 2.13209 0.605511 0 2.17346 0.60389 0 2.16767 0.585244 0 2.12893 0.584045 0 2.15285 0.573957 0 2.19106 0.576464 0 2.20638 0.566223 0 2.21725 0.581709 0 2.20696 0.603016 0 2.19129 0.593917 0 2.14747 0.64724 0 2.15641 0.61201 0 2.16377 0.63181 0 2.14248 0.628336 0 2.12816 0.652593 0 2.21952 0.635849 0 2.20754 0.641197 0 2.21895 0.622255 0 2.17956 0.625032 0 2.19185 0.642916 0 2.17703 0.648906 0 2.194 0.620351 0 2.06853 0.66987 0 2.07826 0.680217 0 2.05459 0.685904 0 2.04675 0.666428 0 2.10979 0.669528 0 2.0938 0.663769 0 2.14524 0.660562 0 2.23509 0.572856 0 2.25698 0.600537 0 2.24513 0.585625 0 2.2242 0.598915 0 2.29331 0.565456 0 2.27248 0.600478 0 2.28652 0.605681 0 2.28434 0.584601 0 2.30689 0.578104 0 2.30871 0.603217 0 2.2686 0.576329 0 2.24101 0.610346 0 2.2453 0.633809 0 2.2497 0.623498 0 2.35395 0.581441 0 2.32403 0.565594 0 2.31803 0.590127 0 2.33872 0.588169 0 2.34351 0.564061 0 2.36444 0.572382 0 2.39561 0.569333 0 2.38249 0.573143 0 
    </DataArray>
   </Points>
   <PointData  Vectors="vector">
    <DataArray Name="SortedParticle_ID" type="Int32" Format="ascii">
    0 1 2 3 4 5 6 7 8 9 10 11 12 13 14 15 16 17 18 19 20 21 22 23 24 25 26 27 28 29 30 31 32 33 34 35 36 37 38 39 40 41 42 43 44 45 46 47 48 49 50 51 52 53 54 55 56 57 58 59 60 61 62 63 64 65 66 67 68 69 70 71 72 73 74 75 76 77 78 79 80 81 82 83 84 85 86 87 88 89 90 91 92 93 94 95 96 97 98 99 100 101 102 103 104 105 106 107 108 109 110 111 112 113 114 115 116 117 118 119 120 121 122 123 124 125 126 127 128 129 130 131 132 133 134 135 136 137 138 139 140 141 142 143 144 145 146 147 148 149 150 151 152 153 154 155 156 157 158 159 160 161 162 163 164 165 166 167 168 169 170 171 172 173 174 175 176 177 178 179 180 181 182 183 184 185 186 187 188 189 190 191 192 193 194 195 196 197 198 199 200 201 202 203 204 205 206 207 208 209 210 211 212 213 214 215 216 217 218 219 220 221 222 223 224 225 226 227 228 229 230 231 232 233 234 235 236 237 238 239 240 241 242 243 244 245 246 247 248 249 
    </DataArray>
    <DataArray Name="OriginalID" type="Int32" Format="ascii">
    1 0 4 2 5 3 9 6 16 12 8 11 7 10 14 21 22 13 17 18 30 20 25 42 36 27 31 32 26 44 38 37 43 49 56 81 72 64 65 50 58 51 57 66 83 82 73 74 100 90 120 110 92 101 102 91 122 112 111 121 130 140 150 169 160 152 141 131 142 132 151 171 162 161 170 186 178 201 194 208 189 188 179 187 180 196 210 195 202 203 220 214 230 225 227 215 216 209 235 221 226 231 212 228 238 234 241 242 239 223 177 206 236 232 185 218 193 213 244 233 240 207 200 219 224 229 246 248 245 243 237 247 249 19 15 23 24 35 34 29 33 28 47 40 39 45 46 48 41 67 53 61 68 59 60 52 75 76 85 84 77 69 54 55 63 70 62 88 86 87 71 78 79 89 80 93 94 103 104 95 124 115 114 113 123 96 105 97 106 107 127 117 125 126 136 116 133 144 153 135 155 154 134 143 163 172 173 174 164 137 145 156 146 128 148 147 175 166 138 139 165 108 109 99 98 119 118 129 181 191 190 182 204 198 158 205 211 159 197 183 149 157 176 217 167 168 222 184 199 192 
    </DataArray>
    <DataArray Name="ErodedLabel" type="Int32" Format="ascii">
    0 0 0 0 0 0 0 0 0 0 0 0 0 0 0 0 0 0 0 0 0 0 0 0 0 0 0 0 0 0 0 0 0 0 0 0 0 0 0 0 0 0 0 0 0 0 0 0 0 0 0 0 0 0 0 0 0 0 0 0 0 0 0 0 0 0 0 0 0 0 0 0 0 0 0 0 0 0 0 0 0 0 0 0 0 0 0 0 0 0 0 0 0 0 1 0 0 0 1 0 0 1 1 1 0 0 0 1 1 1 1 1 1 1 1 1 1 1 1 1 1 1 1 1 1 1 0 1 1 0 1 1 1 0 0 0 0 0 0 0 0 0 0 0 0 0 0 0 0 0 0 0 0 0 0 0 0 0 0 0 0 0 0 0 0 0 0 0 0 0 0 0 0 0 0 0 0 0 0 0 0 0 0 0 0 0 0 0 0 1 1 1 0 1 0 0 0 0 0 0 0 0 0 0 0 0 0 1 0 1 0 1 1 1 1 1 1 1 1 1 1 1 1 1 0 1 1 1 0 1 1 1 0 1 1 1 1 1 0 1 1 1 1 1 1 1 1 1 1 1 
    </DataArray>
    <DataArray Name="Indicator" type="Int32" Format="ascii">
    1 1 0 1 1 1 0 0 0 0 1 1 1 1 1 0 0 0 0 1 0 0 0 0 0 0 0 0 0 0 0 0 0 0 0 0 0 0 0 0 0 0 0 0 0 0 0 0 0 0 0 0 0 0 0 0 0 0 0 0 0 0 0 0 0 0 0 0 0 0 0 0 0 0 0 0 0 0 0 0 0 0 0 0 0 0 0 0 0 0 0 0 0 0 0 0 0 0 0 0 0 0 1 0 0 0 0 0 0 1 1 1 0 0 1 1 1 0 0 0 1 1 1 1 1 1 1 1 1 1 1 1 1 1 1 1 1 1 1 1 0 1 1 1 0 0 0 1 1 0 0 0 0 0 0 0 0 0 0 0 0 0 1 1 1 1 1 1 0 0 1 0 1 1 1 0 0 0 0 0 0 0 0 0 0 0 0 0 0 0 1 0 0 0 0 0 0 0 0 0 0 0 0 0 0 0 0 0 0 1 0 1 0 1 1 1 1 1 1 1 1 1 1 1 1 1 1 1 0 1 0 0 0 1 1 1 1 1 0 1 1 1 1 0 1 1 1 1 1 1 
    </DataArray>
    <DataArray Name="VerticalStress" type="Float32" Format="ascii">
    -909.471198248 -732.404809395 -884.687477049 -1050.507806684 -569.220559678 -530.604272785 -1195.039672631 -964.289188645 -1939.810522720 -1533.453541517 -592.443419464 -748.286240464 -912.647014604 -1147.175499634 -1025.757374906 -1286.036001491 -842.038427043 -1311.037558915 -1236.820554366 -890.165993760 -2515.239750290 -2272.333866446 -2447.845893046 -2680.593463969 -2588.922678383 -993.514476093 -1826.094936372 -1397.862866497 -1415.906326531 -2061.099109207 -1643.703761012 -2173.188970628 -2455.262356368 -2888.568475664 -3031.791314870 -3299.244842133 -3304.526988475 -3153.093036747 -2696.313237610 -2560.142137338 -2379.922054810 -2089.833225970 -2636.593394395 -2381.204779791 -2434.989948692 -2833.748598488 -2835.207763200 -2506.911880240 -3318.029569859 -3439.895431955 -3113.150098546 -3389.837483058 -2518.116671775 -2842.683013030 -2311.547009834 -2985.769094831 -2460.422149981 -2519.050169895 -3009.915390780 -2965.931802052 -3478.674531230 -3255.884523381 -3350.789615888 -3158.127153926 -3173.864702484 -2223.390141188 -2786.599248045 -2937.714155753 -2384.181630256 -2656.976541029 -2838.116437371 -2275.913423652 -1897.970537315 -2651.683696488 -2747.797172626 -2675.745889336 -2920.977735144 -2305.880758009 -2324.342389534 -2379.131377818 -1464.366378162 -2098.325943277 -2702.485661186 -2228.367460994 -2124.514353243 -1258.860956761 -1397.517598471 -1634.276107190 -1894.305450007 -1418.520714876 -2246.498656409 -2045.081606345 -1870.701182951 -2511.601339837 -1789.965393438 -1451.398540012 -958.417735366 -2060.023008462 -876.150776857 -1477.274188823 -1285.040449276 -978.953903290 -423.315885281 -628.708908343 -1344.382492329 -1630.273951927 -2035.513167710 -1364.395583600 -1252.865895551 -403.099011052 -202.001777026 -424.313241733 -831.522244711 -639.014570183 -328.028412185 -244.733817094 -314.332813217 -1318.434619226 -984.615367760 -1191.437954866 -1166.760483606 -210.874319123 -525.291688613 -391.757959845 -241.285201755 -293.256567153 -774.919074003 -622.566281401 -866.225237369 -799.940327150 -541.794818890 -230.005824929 -442.562994967 -582.214595891 -605.128040514 -870.696193897 -635.005323881 -613.337903941 -1049.282481697 -734.198482174 -1151.323335966 -1010.597414636 -886.015405088 -881.206788118 -1052.251750907 -1273.652739998 -837.882575823 -637.126510251 -609.801412799 -2119.405174167 -870.542940769 -1005.658556511 -1380.845867610 -1858.616043888 -1336.370733266 -1226.588634266 -2390.457982156 -1982.637805530 -1953.396340814 -2218.655026535 -1214.884569975 -907.979343656 -973.926429175 -713.951012565 -597.321228854 -816.680428810 -982.937365823 -899.590874475 -1042.736965646 -904.478791779 -644.106617487 -639.568710782 -828.019628108 -505.972021491 -572.415892049 -2139.301983505 -2180.939340017 -2194.795219365 -2058.213508244 -1792.718793108 -1789.257100281 -1791.369329899 -1823.872087700 -2245.238431356 -1891.769451862 -1159.761255202 -1632.629322341 -794.271811216 -1075.364248520 -800.185682476 -635.330762822 -700.551397321 -812.960888937 -870.686833751 -1689.571000106 -1012.173078220 -2184.602525769 -1257.100622265 -2321.600618421 -1593.986153252 -1490.053395196 -1804.780862539 -1636.380382394 -2085.133653135 -1342.872853004 -2244.403066218 -1504.007323761 -1017.077366467 -1499.193821148 -299.637680097 -901.182842463 -553.142161652 -929.350564344 24.083916557 204.169105072 -130.041432272 -991.032714195 -356.432821933 -105.119661429 -134.058202498 -724.971486602 -266.400012812 -289.961914170 -1.230749974 -1183.019095709 -205.729331080 -49.399286223 -261.011000192 -1777.899179582 -1140.414849185 -898.961636729 -1353.581080876 -1504.105722784 91.013456347 -35.664527348 -1355.657615258 -359.729822818 -151.859796880 -779.063747353 -462.345045813 -75.376644288 -130.397576230 -358.782743550 -1065.553735628 -397.730278583 -369.728633877 -175.438809366 -401.782977055 -103.752315615 -173.742540400 
    </DataArray>
    <DataArray Name="FrictionAngle" type="Float32" Format="ascii">
    0.523598776 0.523598776 0.245500280 0.523598776 0.523598776 0.523598776 0.523598776 0.523598776 0.523598776 0.523598776 0.523598776 0.523598776 0.523598776 0.523598776 0.523598776 0.523598776 0.523598776 0.523598776 0.523598776 0.523598776 0.523598776 0.523598776 0.523598776 0.523598776 0.523598776 0.523598776 0.523598776 0.523598776 0.523598776 0.523598776 0.523598776 0.523598776 0.523598776 0.523598776 0.523598776 0.523598776 0.523598776 0.523598776 0.523598776 0.523598776 0.523598776 0.523598776 0.523598776 0.523598776 0.523598776 0.523598776 0.523598776 0.523598776 0.523598776 0.523598776 0.523598776 0.523598776 0.523598776 0.523598776 0.523598776 0.523598776 0.523598776 0.523598776 0.523598776 0.523598776 0.523598776 0.523598776 0.523598776 0.523598776 0.523598776 0.523598776 0.523598776 0.523598776 0.523598776 0.523598776 0.523598776 0.523598776 0.523598776 0.523598776 0.523598776 0.523598776 0.523598776 0.523598776 0.523598776 0.523598776 0.523598776 0.523598776 0.523598776 0.523598776 0.523598776 0.523598776 0.523598776 0.523598776 0.523598776 0.523598776 0.523598776 0.523598776 0.523598776 0.523598776 0.523598776 0.523598776 0.523598776 0.523598776 0.100194962 0.523598776 0.523598776 0.103916061 0.003374848 0.003628989 0.523598776 0.523598776 0.458307299 0.003962927 0.001962553 0.002994514 0.003611451 0.003575847 0.004250619 0.003859135 0.002830809 0.003247274 0.002969740 0.003110114 0.018696993 0.003880186 0.003644565 0.002781339 0.002851876 0.003020018 0.003450578 0.003772611 0.006453180 0.005032152 0.006229281 0.005628134 0.004809585 0.004906929 0.002923667 0.523598776 0.523598776 0.523598776 0.523598776 0.523598776 0.523598776 0.523598776 0.523598776 0.523598776 0.523598776 0.523598776 0.523598776 0.523598776 0.523598776 0.523598776 0.523598776 0.523598776 0.523598776 0.523598776 0.523598776 0.523598776 0.523598776 0.523598776 0.523598776 0.523598776 0.523598776 0.523598776 0.523598776 0.523598776 0.523598776 0.523598776 0.523598776 0.523598776 0.523598776 0.523598776 0.523598776 0.523598776 0.523598776 0.523598776 0.523598776 0.523598776 0.523598776 0.523598776 0.523598776 0.523598776 0.523598776 0.523598776 0.523598776 0.523598776 0.523598776 0.523598776 0.523598776 0.523598776 0.523598776 0.523598776 0.523598776 0.080558529 0.016693481 0.111138318 0.523598776 0.189284277 0.379261608 0.523598776 0.523598776 0.523598776 0.523598776 0.523598776 0.523598776 0.523598776 0.523598776 0.523598776 0.523598776 0.523598776 0.523598776 0.460835257 0.523598776 0.002124188 0.523598776 0.025253047 0.016239023 0.014034050 0.005749381 0.006394608 0.005823592 0.006223735 0.006483456 0.006512971 0.029644585 0.019683804 0.021840958 0.177685248 0.523598776 0.026206226 0.000686426 0.009348337 0.523598776 0.000604289 0.189772573 0.147234913 0.523598776 0.000613106 0.006762868 0.009050683 0.007304565 0.003994513 0.338124720 0.009774176 0.004591476 0.001164927 0.000973255 0.016373465 0.003430492 0.003038715 0.012158013 0.003222645 0.002111707 0.002914894 
    </DataArray>
    <DataArray Name="Cohesion" type="Float32" Format="ascii">
    400.000000000 400.000000000 173.589104511 400.000000000 400.000000000 400.000000000 400.000000000 400.000000000 400.000000000 400.000000000 400.000000000 400.000000000 400.000000000 400.000000000 400.000000000 400.000000000 400.000000000 400.000000000 400.000000000 400.000000000 400.000000000 400.000000000 400.000000000 400.000000000 400.000000000 400.000000000 400.000000000 400.000000000 400.000000000 400.000000000 400.000000000 400.000000000 400.000000000 400.000000000 400.000000000 400.000000000 400.000000000 400.000000000 400.000000000 400.000000000 400.000000000 400.000000000 400.000000000 400.000000000 400.000000000 400.000000000 400.000000000 400.000000000 400.000000000 400.000000000 400.000000000 400.000000000 400.000000000 400.000000000 400.000000000 400.000000000 400.000000000 400.000000000 400.000000000 400.000000000 400.000000000 400.000000000 400.000000000 400.000000000 400.000000000 400.000000000 400.000000000 400.000000000 400.000000000 400.000000000 400.000000000 400.000000000 400.000000000 400.000000000 400.000000000 400.000000000 400.000000000 400.000000000 400.000000000 400.000000000 400.000000000 400.000000000 400.000000000 400.000000000 400.000000000 400.000000000 400.000000000 400.000000000 400.000000000 400.000000000 400.000000000 400.000000000 400.000000000 400.000000000 400.000000000 400.000000000 400.000000000 400.000000000 69.650336195 400.000000000 400.000000000 72.255430692 2.338171886 2.514248585 400.000000000 400.000000000 341.797589941 2.745610818 1.359698576 2.074666643 2.502097489 2.477429966 2.944932862 2.673700414 1.961246930 2.249785356 2.057501953 2.154757206 12.955166507 2.688285092 2.525039618 1.926973340 1.975842742 2.092335999 2.390640311 2.613753774 4.470956434 3.486406279 4.315828054 3.899327083 3.332203614 3.399647659 2.025581993 400.000000000 400.000000000 400.000000000 400.000000000 400.000000000 400.000000000 400.000000000 400.000000000 400.000000000 400.000000000 400.000000000 400.000000000 400.000000000 400.000000000 400.000000000 400.000000000 400.000000000 400.000000000 400.000000000 400.000000000 400.000000000 400.000000000 400.000000000 400.000000000 400.000000000 400.000000000 400.000000000 400.000000000 400.000000000 400.000000000 400.000000000 400.000000000 400.000000000 400.000000000 400.000000000 400.000000000 400.000000000 400.000000000 400.000000000 400.000000000 400.000000000 400.000000000 400.000000000 400.000000000 400.000000000 400.000000000 400.000000000 400.000000000 400.000000000 400.000000000 400.000000000 400.000000000 400.000000000 400.000000000 400.000000000 400.000000000 55.933635592 11.566657634 77.317482628 400.000000000 132.728954785 276.128241207 400.000000000 400.000000000 400.000000000 400.000000000 400.000000000 400.000000000 400.000000000 400.000000000 400.000000000 400.000000000 400.000000000 400.000000000 343.978006439 400.000000000 1.471682929 400.000000000 17.499544438 11.251713955 9.723713603 3.983331970 4.430375000 4.034748329 4.311985458 4.491932976 4.512382702 20.544389617 13.639100902 15.134266477 124.416072093 400.000000000 18.160363401 0.475569673 6.476906597 400.000000000 0.418663549 133.079705239 102.750897524 400.000000000 0.424772540 4.685524075 6.270668398 5.060840798 2.767494699 243.615261013 6.771963201 3.181090434 0.807085301 0.674290935 11.344883438 2.376723835 2.105289782 8.423733595 2.232721721 1.463035975 2.019503587 
    </DataArray>
    <DataArray Name="Pressure" type="Float32" Format="ascii">
    770.868657244 1133.093403602 1099.945992103 970.893268696 670.146913651 788.942109620 1471.245415866 1348.847550076 1454.248801934 1480.974109621 475.596341328 512.805652787 701.433019591 743.855327969 634.158089524 1424.657001570 1205.516847815 950.624966872 1193.931058687 832.404752147 1687.270376901 1454.613038365 1579.115423785 1976.659216674 1895.259882393 1255.523999001 1495.893053611 1282.932999930 1550.010297214 1298.984672528 1202.700396586 1444.316362890 1501.531434485 2091.569289513 2107.382788463 2196.940681852 2203.829696504 2175.017736494 1895.267266156 1608.424700841 1506.579791337 1389.878882154 1789.457732767 1487.583437720 1724.015719226 1972.461180645 1963.175054118 1708.574119618 2215.597934812 2302.432213893 2204.298089743 2352.456319777 1837.959967259 1876.459377191 1665.764196014 1959.631196885 1619.515968368 1690.238272491 1945.846993934 2010.181651662 2437.514075359 2278.880693072 2389.399406257 2184.301538961 2251.794600495 1539.642451125 1926.293739040 2007.195369365 1503.329404782 1679.732472659 1909.879965307 1733.688199651 1547.220745043 1947.410283807 1938.882314137 1876.078006328 2046.673334713 1616.774806127 1862.018453400 1880.103794996 1249.435212661 1364.967866734 2023.295255222 1566.609576059 1661.131676686 996.498232326 1240.271034468 1342.988645340 1577.469408852 1466.279715375 1706.847870482 1463.854910631 1270.212432635 1514.295466972 1112.815204664 1070.238193184 908.408861224 1446.057372469 865.688691606 1220.404001020 1228.610924350 966.066528015 429.662226444 679.709748481 763.109311000 1197.215275160 1212.761312031 1390.102459113 1256.718117014 393.123045576 218.485779526 434.260429259 815.866701999 600.888396587 333.602556066 249.331106054 311.131044124 1320.461113041 975.694519541 1191.098949188 1165.410078711 216.674258622 527.080457864 394.970596233 236.969280660 297.197703135 774.072871313 628.506489623 864.400012373 798.662741449 537.701242721 225.908589830 443.974704239 467.927094994 533.569226709 661.552806778 405.693718941 388.261744100 529.718857659 353.715856068 912.590748621 603.064865391 560.222755543 623.080189348 1037.707511811 1293.145864855 1164.067901048 289.253394932 309.957316364 1148.320147704 1131.914444875 873.821279909 1050.668631358 1321.966977358 1219.621603541 1399.306678640 1309.136015733 1093.219884030 1198.732000645 1341.521860816 1225.238077308 960.922565116 452.446790002 221.282406106 242.181396970 438.266308291 394.081170368 349.521659660 1263.958869290 1095.191098906 142.683534614 1017.846833997 301.349902667 -156.107010851 71.019505349 1588.698703759 1191.292971614 1356.875945811 950.666490776 991.309916585 1417.162070898 909.765473888 1075.859888779 1380.489684833 1392.442235410 1169.878530407 878.542473381 814.609815562 915.284566671 789.817890273 563.911266553 704.570264857 930.594179508 781.844411925 1184.646835282 880.175292711 1576.342321028 887.230485508 1401.832982313 1286.299124013 903.573500888 989.782504760 1238.443397839 1298.521629576 890.213247933 1666.627747067 1085.610922024 620.829598892 1206.037440005 237.783549059 767.108744788 496.887819586 822.918590315 -85.258197844 -200.662728222 147.776947121 1011.534319843 417.262759909 151.833751588 158.517326084 799.475187848 208.204383415 239.981680427 -174.324535750 492.572946412 147.849377103 53.385734999 234.172508737 1287.512228412 1140.793947128 670.098705876 1112.206679917 1166.631717593 -98.737331036 41.991407145 1320.292353261 383.322575142 165.325648288 616.092498359 461.709503355 95.449567609 152.385353907 345.506437448 1034.120327152 406.600978399 358.063739160 126.544370077 400.203717061 86.809718245 164.200628649 
    </DataArray>
    <DataArray Name="Density" type="Float32" Format="ascii">
    2040.556380684 2040.517462234 2040.323628509 2040.208572963 2040.356972382 2040.311213854 2040.124701607 2040.201552496 2040.115746850 2045.113446571 2040.362304511 2040.318703961 2040.202681509 2040.089921861 2040.117711898 2040.114976464 2040.084887554 2040.020070032 2039.991159205 2040.057873097 2050.524772025 2040.196720901 2040.092479523 2052.652952600 2041.974192997 2040.014496978 2040.089061255 2048.556749147 2039.946711702 2042.694381831 2040.036047478 2039.931833229 2040.094369448 2042.053097649 2058.837089184 2040.158516309 2068.511579057 2042.223126188 2039.945067703 2039.985240562 2051.580774604 2040.009324770 2040.100918102 2040.016560078 2039.975589971 2039.851479904 2040.089191990 2049.189693081 2040.177644290 2071.374737050 2042.349495855 2089.376623934 2051.717808546 2040.051827027 2040.071543704 2043.537391490 2039.921830496 2049.497778229 2041.820021406 2039.914444385 2088.156601311 2040.195724017 2066.051087980 2079.114198590 2039.995276645 2043.885081633 2039.730747122 2042.033448183 2040.161581616 2046.182001840 2040.309881538 2041.820854924 2040.347006823 2039.839383498 2040.065321491 2050.364819100 2056.515977650 2057.771814844 2039.959895708 2053.481612345 2054.059022780 2040.412754192 2038.992412090 2042.594702616 2042.221380705 2040.673723074 2061.642448998 2040.468456608 2040.181565707 2072.257884966 2086.132299513 2077.903782901 2040.211512828 2063.652106307 2038.734940649 2040.561363162 2040.155977731 2039.797734366 2040.247047898 2039.984318839 2043.274204919 2039.413751628 2088.578778148 2061.740151793 2220.487115869 2156.937822959 2060.603098634 2039.585853682 2038.952839943 2040.392082907 2040.546879437 2040.166050813 2039.638715134 2040.174393180 2040.248707459 2041.408562464 2040.457740353 2039.322080862 2040.720420472 2039.756914485 2039.394234497 2040.855937589 2040.330815150 2040.223738372 2041.040521181 2040.511554251 2040.576198567 2040.264483380 2040.060684861 2040.106740878 2040.251150718 2040.734609788 2040.627167928 2040.422340558 2040.254792685 2040.084916507 2040.254317430 2040.249271468 2039.973837056 2040.374723175 2041.321130374 2040.141116959 2040.045456897 2040.123919395 2040.037730803 2055.495623269 2039.915675975 2040.233520863 2040.419919374 2039.943221513 2040.023377220 2039.949178967 2041.109469902 2050.086089275 2054.876851679 2040.011041156 2055.166520931 2042.659831288 2045.873142300 2040.065533038 2045.871189852 2047.147754078 2040.176112480 2040.331612440 2040.252058593 2040.113476627 2040.042082739 2040.009279881 2043.958487035 2067.901491603 2040.334230646 2040.057261201 2040.208572125 2040.818769330 2040.236094230 2055.298402668 2043.815940119 2042.335500371 2039.944580046 2044.375485081 2051.475058409 2042.939508954 2040.408776164 2049.386285988 2040.307245072 2047.878995002 2049.424106155 2040.465988362 2039.941988651 2097.559244746 2173.524754868 2043.255657173 2062.221387581 2046.756935893 2041.746028428 2040.057590279 2053.335054560 2050.688495763 2039.412920491 2054.278798683 2039.751402776 2040.076882730 2040.633394985 2039.657538133 2051.322147212 2040.964462870 2051.907854625 2041.230832384 2038.973941125 2060.390949955 2046.174501596 2055.635991395 2068.339710681 2049.621948658 2041.852067549 2040.802675556 2113.169210818 2214.725328048 2048.486426903 2040.478037576 2100.708428412 2136.521815900 2039.962187707 2040.973279811 2039.063460157 2040.321092722 2041.222146052 2040.044066026 2070.423521240 2093.241764485 2041.081673969 2038.963658258 2039.500991571 2079.392906232 2041.073361883 2046.316551256 2070.479409612 2040.507644451 2053.487697557 2138.469640031 2040.434089216 2040.811368337 2040.122907560 2038.688850223 2040.182814935 2040.155040512 2061.635903807 2082.770825073 2040.813394805 2040.668062127 
    </DataArray>
    <DataArray Name="Velocity" type="Float32"  NumberOfComponents="3" Format="ascii">