<?xml version="1.0"?>
<VTKFile type="PolyData" version="0.1" byte_order="LittleEndian">
 <PolyData>
  <Piece Name ="SoilBlock" NumberOfPoints="250" NumberOfVerts="250">
   <Points>
    <DataArray Name="Position" type="Float32"  NumberOfComponents="3" Format="ascii">
    1.69011 0.509801 0 1.71103 0.511015 0 1.73075 0.509204 0 1.75028 0.508839 0 1.72787 0.52939 0 1.74908 0.533674 0 1.77273 0.50836 0 1.79301 0.508908 0 1.81441 0.50898 0 1.83422 0.509259 0 1.79115 0.55258 0 1.80398 0.528123 0 1.76512 0.528284 0 1.78562 0.530948 0 1.77066 0.549527 0 1.84354 0.52901 0 1.82433 0.530633 0 1.83075 0.55096 0 1.81113 0.548376 0 1.89563 0.509176 0 1.85506 0.508968 0 1.87518 0.509303 0 1.91551 0.509592 0 1.93551 0.509326 0 1.89343 0.549114 0 1.86306 0.530256 0 1.85226 0.549251 0 1.87218 0.550443 0 1.88255 0.529272 0 1.9333 0.548857 0 1.91251 0.550504 0 1.90264 0.529812 0 1.94313 0.52988 0 1.92259 0.529518 0 1.95526 0.509697 0 1.97522 0.509331 0 2.01438 0.509179 0 1.99462 0.510143 0 2.03292 0.510868 0 1.98375 0.530255 0 1.97341 0.548281 0 1.95232 0.550808 0 1.96303 0.529403 0 2.03074 0.553291 0 2.02591 0.531096 0 2.00404 0.529068 0 2.01281 0.546836 0 1.9921 0.551562 0 2.05312 0.508325 0 2.07103 0.512323 0 2.11003 0.512382 0 2.09057 0.507475 0 2.07099 0.554072 0 2.04619 0.528336 0 2.05128 0.545635 0 2.06832 0.532122 0 2.0899 0.527262 0 2.1099 0.53369 0 2.11099 0.552827 0 2.08882 0.545866 0 2.14881 0.512155 0 2.12903 0.507553 0 2.16632 0.508364 0 2.205 0.508687 0 2.18636 0.511165 0 2.15032 0.554188 0 2.16887 0.545368 0 2.13198 0.54606 0 2.15175 0.532074 0 2.13019 0.527564 0 2.20525 0.547073 0 2.18656 0.553998 0 2.19596 0.531141 0 2.17452 0.52811 0 2.21678 0.528587 0 2.2257 0.509614 0 2.24571 0.508868 0 2.28708 0.50879 0 2.26756 0.50984 0 2.30637 0.510219 0 2.22731 0.55112 0 2.24949 0.547699 0 2.23494 0.532971 0 2.25461 0.526393 0 2.30284 0.558379 0 2.27179 0.534117 0 2.28994 0.528311 0 2.29932 0.542239 0 2.27294 0.552871 0 2.32314 0.510131 0 2.34189 0.509576 0 2.36257 0.508029 0 2.39054 0.508818 0 2.34592 0.557544 0 2.3231 0.559596 0 2.34512 0.529621 0 2.32846 0.540802 0 2.31717 0.529908 0 2.39938 0.557714 0 2.36217 0.55402 0 2.36196 0.534101 0 2.38657 0.563655 0 2.37798 0.518683 0 2.3987 0.532981 0 2.38136 0.540404 0 2.44155 0.508308 0 2.41243 0.508392 0 2.46175 0.510083 0 2.49001 0.512168 0 2.41608 0.538154 0 2.44155 0.54585 0 2.43086 0.558954 0 2.41351 0.555294 0 2.43928 0.526763 0 2.42137 0.518347 0 2.47333 0.541806 0 2.49271 0.543705 0 2.47481 0.523831 0 2.45852 0.541125 0 2.53137 0.512372 0 2.51029 0.51303 0 2.56973 0.511306 0 2.5504 0.511487 0 2.50658 0.538848 0 2.53373 0.54356 0 2.52201 0.534514 0 2.5702 0.540455 0 2.55179 0.535924 0 2.58334 0.533287 0 2.61524 0.507168 0 2.592 0.511407 0 2.64104 0.512612 0 2.66455 0.512432 0 2.62839 0.531118 0 2.59948 0.536676 0 2.61301 0.53068 0 2.66487 0.536108 0 2.64557 0.538819 0 2.71074 0.51134 0 2.68768 0.512906 0 2.73531 0.510121 0 2.76391 0.506419 0 2.70926 0.535023 0 2.68598 0.536439 0 2.75266 0.526904 0 2.73117 0.532743 0 1.80822 0.568238 0 1.84647 0.567789 0 1.84984 0.58906 0 1.82931 0.573533 0 1.88506 0.567035 0 1.86643 0.572668 0 1.88863 0.607999 0 1.89015 0.586547 0 1.87106 0.593603 0 1.92497 0.567601 0 1.93084 0.586462 0 1.92791 0.605569 0 1.90895 0.592979 0 1.90628 0.572461 0 1.91032 0.613943 0 1.92911 0.627979 0 1.98999 0.593233 0 1.98634 0.572456 0 1.95059 0.593047 0 1.96722 0.605123 0 1.96518 0.566968 0 1.97066 0.585683 0 1.94577 0.572298 0 2.00584 0.566767 0 2.02807 0.572611 0 2.00621 0.604504 0 2.01084 0.584519 0 2.02892 0.595125 0 1.94652 0.614139 0 1.9514 0.634006 0 1.96817 0.646905 0 1.98778 0.634734 0 1.96936 0.623851 0 1.98814 0.614439 0 2.02933 0.6124 0 2.02786 0.636015 0 1.99165 0.654273 0 2.01049 0.622553 0 2.00627 0.642912 0 2.02632 0.651658 0 2.01305 0.664666 0 2.07238 0.595168 0 2.05226 0.601282 0 2.04897 0.565158 0 2.04775 0.584433 0 2.06788 0.573553 0 2.0864 0.583809 0 2.09152 0.565303 0 2.12386 0.604925 0 2.1095 0.574885 0 2.12725 0.566355 0 2.11142 0.592002 0 2.09371 0.603188 0 2.06717 0.646476 0 2.0461 0.654805 0 2.05466 0.639832 0 2.07879 0.636186 0 2.04513 0.623875 0 2.06438 0.615875 0 2.10016 0.640906 0 2.08295 0.619252 0 2.11772 0.631555 0 2.10511 0.619659 0 2.17162 0.567498 0 2.1676 0.609201 0 2.13624 0.585343 0 2.14941 0.572702 0 2.17129 0.584585 0 2.15307 0.595589 0 2.18732 0.593373 0 2.19653 0.570263 0 2.21787 0.567517 0 2.20694 0.585107 0 2.19675 0.605297 0 2.1293 0.633171 0 2.15032 0.63311 0 2.13841 0.610401 0 2.15271 0.623811 0 2.17494 0.622938 0 2.19111 0.625101 0 2.21198 0.616388 0 2.2335 0.572215 0 2.22266 0.608667 0 2.24221 0.587865 0 2.26065 0.602673 0 2.25499 0.604007 0 2.26381 0.579994 0 2.22598 0.598082 0 2.25526 0.564483 0 2.29307 0.581793 0 2.28439 0.56647 0 2.31129 0.581844 0 2.28116 0.594156 0 2.32372 0.580106 0 2.35597 0.577226 0 2.33434 0.576406 0 2.37363 0.568802 0 2.81694 0.517904 0 2.79419 0.516008 0 2.83698 0.511426 0 2.77431 0.527667 0 2.85741 0.5225 0 2.89887 0.508508 0 2.87072 0.507479 0 
    </DataArray>
   </Points>
   <PointData  Vectors="vector">
    <DataArray Name="SortedParticle_ID" type="Int32" Format="ascii">
    0 1 2 3 4 5 6 7 8 9 10 11 12 13 14 15 16 17 18 19 20 21 22 23 24 25 26 27 28 29 30 31 32 33 34 35 36 37 38 39 40 41 42 43 44 45 46 47 48 49 50 51 52 53 54 55 56 57 58 59 60 61 62 63 64 65 66 67 68 69 70 71 72 73 74 75 76 77 78 79 80 81 82 83 84 85 86 87 88 89 90 91 92 93 94 95 96 97 98 99 100 101 102 103 104 105 106 107 108 109 110 111 112 113 114 115 116 117 118 119 120 121 122 123 124 125 126 127 128 129 130 131 132 133 134 135 136 137 138 139 140 141 142 143 144 145 146 147 148 149 150 151 152 153 154 155 156 157 158 159 160 161 162 163 164 165 166 167 168 169 170 171 172 173 174 175 176 177 178 179 180 181 182 183 184 185 186 187 188 189 190 191 192 193 194 195 196 197 198 199 200 201 202 203 204 205 206 207 208 209 210 211 212 213 214 215 216 217 218 219 220 221 222 223 224 225 226 227 228 229 230 231 232 233 234 235 236 237 238 239 240 241 242 243 244 245 246 247 248 249 
    </DataArray>
    <DataArray Name="OriginalID" type="Int32" Format="ascii">
    0 1 2 4 3 5 6 9 12 16 11 13 7 10 8 21 17 18 14 30 20 25 36 42 32 26 22 27 31 44 38 37 50 43 49 56 72 64 81 65 58 51 57 83 82 73 74 66 90 100 120 110 102 91 92 101 111 121 122 112 140 130 150 169 160 142 152 132 141 131 171 162 161 151 170 178 186 201 194 208 180 188 179 187 210 195 202 203 196 214 220 225 230 227 217 215 216 209 175 222 221 165 226 235 231 241 234 242 157 232 138 139 205 236 238 148 149 183 147 184 167 223 212 198 158 228 168 159 176 244 239 218 200 206 192 199 185 177 233 213 240 246 207 193 224 219 15 23 24 19 33 28 35 34 29 45 46 47 40 39 41 48 68 67 53 61 59 60 52 75 84 77 76 85 54 55 63 70 62 69 86 87 71 78 79 88 80 104 95 93 94 103 114 113 135 123 133 124 115 98 89 97 106 96 105 99 116 107 125 153 155 134 143 154 144 164 163 172 173 174 108 117 145 126 136 109 118 181 127 190 166 146 197 182 189 128 204 137 119 191 129 211 156 243 237 245 229 247 249 248 
    </DataArray>
    <DataArray Name="ErodedLabel" type="Int32" Format="ascii">
    0 0 0 1 0 0 0 0 0 0 0 0 0 0 0 0 0 0 0 0 0 0 0 0 0 0 0 0 0 0 0 0 0 0 0 0 0 0 0 0 0 0 0 0 0 0 0 0 0 0 0 0 0 0 0 0 0 0 0 0 0 0 0 0 0 0 0 0 0 0 0 0 0 0 0 0 0 0 0 0 0 0 0 0 1 0 0 0 0 0 0 0 0 1 1 0 0 0 1 1 0 1 0 1 1 0 0 1 1 1 1 1 1 1 0 1 1 1 1 1 1 1 1 1 1 1 1 1 1 0 1 0 1 1 1 0 1 1 1 1 1 0 1 1 1 0 0 0 0 0 0 0 0 0 0 0 0 0 0 0 0 0 0 0 0 0 0 0 0 0 0 0 0 0 0 0 0 0 0 0 0 1 0 0 0 1 1 0 0 0 0 0 0 0 1 0 0 0 0 1 1 1 1 1 0 1 1 1 1 0 1 0 0 0 0 1 0 0 1 1 1 1 1 1 1 1 1 0 1 1 1 1 1 1 0 1 1 1 1 1 1 1 1 1 1 1 0 1 1 1 
    </DataArray>
    <DataArray Name="Indicator" type="Int32" Format="ascii">
    1 1 1 0 1 1 0 0 0 0 1 0 1 1 1 0 0 1 1 0 0 0 0 0 0 0 0 0 0 0 0 0 0 0 0 0 0 0 0 0 0 0 0 0 0 0 0 0 0 0 0 0 0 0 0 0 0 0 0 0 0 0 0 0 0 0 0 0 0 0 0 0 0 0 0 0 0 0 0 0 0 0 0 0 0 0 0 0 0 0 0 0 0 1 1 0 0 0 1 1 0 1 0 0 0 0 0 0 0 1 1 1 1 1 0 1 1 1 1 0 0 0 0 1 1 1 1 1 1 0 0 1 0 1 1 1 1 1 0 0 0 0 1 1 1 1 1 1 1 1 0 1 1 1 1 0 0 1 1 0 1 1 0 0 0 0 0 0 0 0 0 0 0 0 1 1 1 1 1 0 0 0 1 0 1 1 1 0 0 0 0 0 0 0 0 0 0 0 0 1 1 1 1 0 0 1 0 1 1 0 1 0 0 0 0 0 0 0 0 1 1 1 0 1 1 1 1 0 1 1 1 1 1 1 0 1 0 1 1 1 1 1 1 1 1 1 1 1 1 1 
    </DataArray>
    <DataArray Name="VerticalStress" type="Float32" Format="ascii">
    -360.202271684 -892.556700851 -866.527480265 -965.701040294 -367.405685126 -269.386244756 -1641.467259845 -1887.381972789 -1856.685236902 -1793.055082516 -242.132075479 -966.964343015 -576.005863617 -577.122677814 -100.670241413 -1840.873467031 -1429.378410474 -976.609667758 -516.034831111 -2423.100825146 -1921.335641065 -2178.954904901 -2601.480372871 -2784.599438322 -1593.300211721 -1932.181020664 -1418.146787715 -1410.175425291 -1870.188230554 -1895.805143694 -1821.997879437 -1957.697706771 -2288.259802027 -2163.560952997 -2959.800062515 -2992.689019007 -2951.347949091 -3026.929563257 -3019.774386920 -2596.988924355 -1974.214099563 -1848.854917253 -2419.058962827 -2195.148281526 -2713.351216490 -2771.264825695 -2394.292672972 -2134.024224850 -2986.499340370 -2790.802624714 -2727.669024175 -2919.572585057 -2187.259710654 -2692.767635847 -2412.219302369 -2529.989644374 -2504.032965530 -2232.683106752 -1685.835697791 -2148.402955354 -2560.738590999 -2777.201196610 -2643.428559866 -2724.255903454 -2709.662944656 -1932.320916322 -2231.575470681 -1746.877393182 -2348.770398460 -2288.573474773 -1424.101574291 -1823.973736697 -2070.054449421 -2336.375395372 -2345.787800036 -2638.772079072 -2742.425755964 -2165.507432019 -2566.486411000 -1699.049145650 -1374.038809941 -1907.888014666 -2016.899346978 -2478.987876337 -941.912021617 -1902.409803200 -1757.861774306 -1015.873754415 -1681.342359361 -1579.211371138 -1644.223394387 -1961.598377401 -1486.418514522 -992.538119208 -915.693251672 -1467.494417036 -1541.386455484 -1262.568970898 -290.975607398 -146.906417589 -1405.219696557 -232.397425096 -1485.848317912 -798.991517480 -846.786548218 -1664.508983986 -1572.350142741 -1232.975888382 -1416.311305554 -868.034262057 -486.456150143 -157.248926233 -143.290233976 -684.297537528 -1216.295040917 -164.405179364 -360.292808238 -787.474037882 -435.979036590 -1181.504058116 -1320.948740983 -1064.307426771 -983.184978114 -277.378095189 -258.603766357 -323.511158403 -246.164156057 -578.819376850 -422.680975256 -953.939907764 -1181.046641294 -1316.751501074 -1099.986926228 -239.721387539 -116.786705120 -501.224867871 -271.270150628 -228.509650547 -939.031044763 -1057.471580220 -943.060436647 -786.896223613 -353.207604960 -263.424632865 -415.197608506 -277.289986502 -289.344026080 -558.859155995 -122.182861980 -271.894158747 -1033.710372692 -477.306091235 -226.403452347 -525.698647810 -178.184361627 -1809.132633267 -1352.788088503 -464.733673434 -703.649876073 -1427.482982406 -145.792315631 -55.122152242 -1710.370373316 -1614.005793938 -1252.160622087 -1234.438466243 -1597.992848596 -1627.018780443 -1626.891477932 -1830.188633126 -1534.928451703 -1533.177213635 -1514.877180184 -1265.692788534 -440.529025117 -86.717032460 -54.287348820 -427.108239164 -433.559228063 -1292.098666265 -966.000895082 -816.966198408 145.028352762 -1100.393170893 -547.773860288 49.196208209 -200.977253487 -1517.188253128 -1120.071141797 -1863.814182819 -1553.877068661 -1789.209698628 -1559.186058283 -1831.872091215 -1140.685853452 -1457.649218675 -1432.291495887 -1179.944759702 -1074.717850020 -250.049576165 -236.243513447 -79.319106212 -170.314566142 -1130.119656659 -1130.153283580 -196.613213713 -741.980538852 -181.541301372 -533.670208938 -1797.983664814 -931.108572244 -890.564181482 -1635.495822671 -1626.689093868 -1214.345199745 -886.876542480 -1034.738616063 -1132.451725609 -823.439020872 -310.118357351 -151.247836517 -135.754943697 -722.166216278 -202.279642413 57.261203508 -315.810285354 -257.482518584 -1368.091939220 38.505180424 -531.722249112 -236.796326266 -2.653555963 -756.739383915 -1048.932766806 -1297.130136210 -550.068685513 -191.729698260 -105.210745755 -214.440732533 -129.620366817 -158.268301285 -49.526126454 -278.173651826 -594.287359682 -1029.131514123 -742.436293571 -351.837271627 -387.139534119 -409.389588069 -557.440841635 
    </DataArray>
    <DataArray Name="FrictionAngle" type="Float32" Format="ascii">
    0.523598776 0.523598776 0.523598776 0.009964765 0.523598776 0.523598776 0.523598776 0.523598776 0.523598776 0.523598776 0.523598776 0.523598776 0.523598776 0.523598776 0.523598776 0.523598776 0.523598776 0.523598776 0.523598776 0.523598776 0.523598776 0.523598776 0.523598776 0.523598776 0.523598776 0.523598776 0.523598776 0.523598776 0.523598776 0.523598776 0.523598776 0.523598776 0.523598776 0.523598776 0.523598776 0.523598776 0.523598776 0.523598776 0.523598776 0.523598776 0.523598776 0.523598776 0.523598776 0.523598776 0.523598776 0.523598776 0.523598776 0.523598776 0.523598776 0.523598776 0.523598776 0.523598776 0.523598776 0.523598776 0.523598776 0.523598776 0.523598776 0.523598776 0.523598776 0.523598776 0.523598776 0.523598776 0.523598776 0.523598776 0.523598776 0.523598776 0.523598776 0.523598776 0.523598776 0.523598776 0.523598776 0.523598776 0.523598776 0.523598776 0.523598776 0.523598776 0.523598776 0.523598776 0.523598776 0.523598776 0.523598776 0.523598776 0.523598776 0.523598776 0.020876160 0.523598776 0.523598776 0.523598776 0.523598776 0.523598776 0.523598776 0.523598776 0.523598776 0.003366962 0.001074577 0.523598776 0.523598776 0.523598776 0.001236801 0.001376695 0.523598776 0.001608790 0.523598776 0.004920541 0.002822155 0.458307299 0.523598776 0.003791505 0.000679623 0.001214653 0.001227875 0.001224116 0.001217310 0.000205942 0.523598776 0.001180549 0.001053174 0.001251289 0.001209154 0.001524532 0.001345237 0.001852349 0.001844411 0.000450147 0.001506319 0.001200384 0.001203576 0.001190127 0.000672329 0.010147916 0.000773544 0.001744972 0.001136500 0.001562502 0.001291928 0.001134314 0.001622738 0.001615223 0.002079678 0.001653744 0.002388569 0.003011410 0.001884800 0.001812985 0.002163652 0.002017429 0.523598776 0.523598776 0.523598776 0.523598776 0.523598776 0.523598776 0.523598776 0.523598776 0.523598776 0.523598776 0.523598776 0.523598776 0.523598776 0.523598776 0.523598776 0.523598776 0.523598776 0.523598776 0.523598776 0.523598776 0.523598776 0.523598776 0.523598776 0.523598776 0.523598776 0.523598776 0.523598776 0.523598776 0.517483171 0.523598776 0.523598776 0.399900744 0.523598776 0.523598776 0.523598776 0.027487472 0.469838934 0.523598776 0.174542535 0.017090507 0.039933192 0.523598776 0.523598776 0.523598776 0.523598776 0.523598776 0.523598776 0.523598776 0.201847927 0.523598776 0.523598776 0.523598776 0.523598776 0.014187105 0.013080204 0.008842472 0.015454760 0.185630782 0.187691825 0.006593802 0.002865760 0.005639148 0.001223377 0.523598776 0.003473444 0.523598776 0.523598776 0.523598776 0.523598776 0.065705685 0.523598776 0.523598776 0.061419527 0.001131833 0.003578167 0.004480982 0.000864473 0.002821194 0.003893163 0.003286129 0.000544158 0.523598776 0.002024024 0.003442455 0.001471222 0.001827229 0.002152201 0.002199490 0.523598776 0.001784743 0.008081624 0.001057137 0.001876971 0.000447398 0.001511842 0.000076013 0.001682521 0.004267872 0.003475288 0.003963892 0.002359158 0.002504874 0.001690128 0.002551353 
    </DataArray>
    <DataArray Name="Cohesion" type="Float32" Format="ascii">
    400.000000000 400.000000000 400.000000000 6.904020203 400.000000000 400.000000000 400.000000000 400.000000000 400.000000000 400.000000000 400.000000000 400.000000000 400.000000000 400.000000000 400.000000000 400.000000000 400.000000000 400.000000000 400.000000000 400.000000000 400.000000000 400.000000000 400.000000000 400.000000000 400.000000000 400.000000000 400.000000000 400.000000000 400.000000000 400.000000000 400.000000000 400.000000000 400.000000000 400.000000000 400.000000000 400.000000000 400.000000000 400.000000000 400.000000000 400.000000000 400.000000000 400.000000000 400.000000000 400.000000000 400.000000000 400.000000000 400.000000000 400.000000000 400.000000000 400.000000000 400.000000000 400.000000000 400.000000000 400.000000000 400.000000000 400.000000000 400.000000000 400.000000000 400.000000000 400.000000000 400.000000000 400.000000000 400.000000000 400.000000000 400.000000000 400.000000000 400.000000000 400.000000000 400.000000000 400.000000000 400.000000000 400.000000000 400.000000000 400.000000000 400.000000000 400.000000000 400.000000000 400.000000000 400.000000000 400.000000000 400.000000000 400.000000000 400.000000000 400.000000000 14.465529101 400.000000000 400.000000000 400.000000000 400.000000000 400.000000000 400.000000000 400.000000000 400.000000000 2.332708522 0.744489122 400.000000000 400.000000000 400.000000000 0.856881073 0.953803064 400.000000000 1.114603352 400.000000000 3.409078481 1.955251685 341.797589941 400.000000000 2.626844570 0.470856792 0.841536945 0.850696847 0.848092656 0.843377470 0.142680581 400.000000000 0.817908720 0.729660442 0.866918891 0.837727211 1.056227774 0.932007822 1.283346505 1.277847059 0.311871059 1.043608900 0.831650955 0.833862000 0.824544572 0.465803350 7.030923606 0.535927331 1.208953503 0.787390415 1.082534310 0.895074349 0.785876221 1.124266775 1.119060429 1.440845347 1.145748440 1.654852146 2.086372119 1.305829451 1.256074139 1.499024650 1.397717647 400.000000000 400.000000000 400.000000000 400.000000000 400.000000000 400.000000000 400.000000000 400.000000000 400.000000000 400.000000000 400.000000000 400.000000000 400.000000000 400.000000000 400.000000000 400.000000000 400.000000000 400.000000000 400.000000000 400.000000000 400.000000000 400.000000000 400.000000000 400.000000000 400.000000000 400.000000000 400.000000000 400.000000000 394.370453161 400.000000000 400.000000000 292.838679038 400.000000000 400.000000000 400.000000000 19.048676775 351.788725602 400.000000000 122.169780353 11.841803282 27.681242298 400.000000000 400.000000000 400.000000000 400.000000000 400.000000000 400.000000000 400.000000000 141.775022834 400.000000000 400.000000000 400.000000000 400.000000000 9.829774392 9.062747742 6.126404281 10.708224711 130.106661742 131.585526771 4.568385917 1.985462082 3.906957930 0.847580869 400.000000000 2.406482349 400.000000000 400.000000000 400.000000000 400.000000000 45.587857371 400.000000000 400.000000000 42.606285402 0.784157470 2.479037335 3.104536302 0.598924952 1.954585381 2.697276232 2.276705370 0.377004034 400.000000000 1.402287022 2.385012020 1.019293055 1.265943120 1.491090721 1.523853646 400.000000000 1.236507426 5.599235548 0.732406400 1.300405176 0.309966506 1.047435520 0.052663359 1.165685530 2.956886410 2.407759534 2.746279521 1.634475667 1.735430954 1.170955840 1.767632738 
    </DataArray>
    <DataArray Name="Pressure" type="Float32" Format="ascii">
    1029.631671037 647.770518485 762.219849435 875.259308078 615.727160605 495.792900763 848.486349881 1016.261966455 1208.254688159 1426.789439323 738.093438001 1075.217520576 721.673195358 975.277649771 541.601238185 835.592617104 901.369548778 612.657875273 843.684027005 1728.990332892 1554.971018573 1652.283756677 1763.303594176 1791.411719585 1099.733257731 1023.274827351 629.791998707 950.719112955 1388.591120151 1225.596822766 1075.376457714 1510.004904930 1644.217244131 1500.423077736 1879.444807160 1927.397498951 2004.592501643 2006.096239067 2067.832556132 1686.171925539 1622.426416003 1533.658336812 1740.836938563 1508.446456821 1694.374727610 1671.787369767 1461.206202001 1451.371682803 2074.873520757 1923.327014963 1847.649179559 1974.270042230 1342.406789911 1784.709140421 1579.859514027 1617.829631265 1728.260220470 1643.573613268 1521.312420845 1439.562002367 1822.004933256 1917.900584023 1825.445572481 1857.590003496 1929.970192560 1177.636138606 1295.776214604 1507.783877074 1439.613077029 1627.950411555 1242.327125508 1210.751749611 1558.892759136 1644.774664262 1667.771477056 1850.742740973 1933.086250315 1757.160068722 1891.001242318 1425.047999750 895.859069429 1159.812090057 1218.293687105 1558.835499551 899.010089744 1353.359164549 1338.973617171 788.629904903 1215.083677362 1299.599203818 1395.827304933 1479.677456993 1270.682497785 1002.987740218 926.349432953 1037.905954964 891.837776431 828.804906316 302.053591737 179.927218308 1090.841084140 249.819042117 1325.834193608 831.522609598 938.301308116 1186.153378749 1436.336484734 1235.410796224 1417.529856051 846.851344526 477.439624168 152.708822724 136.970378231 663.623701287 832.465780883 166.160079000 366.578468715 790.073973620 437.847488198 1183.309896437 1320.484884974 1063.668244616 981.306040647 279.549907793 259.109424294 323.672765798 245.437616175 578.003870143 421.722376276 953.235217862 1182.899782113 1316.803534060 1098.627119607 238.651559415 116.435996164 501.108079804 270.588937914 227.090825895 940.503474081 1058.481067853 943.111042037 787.570366364 351.906804770 265.091648500 415.038722950 277.240202655 562.979744084 669.625421458 576.928093451 485.580289960 950.375598589 892.641736803 530.409638333 802.369029983 676.659093900 738.962053727 650.294149427 758.148439403 619.145763464 679.402211926 543.209958035 563.767681532 718.874661392 1205.759079242 765.803667067 650.342763337 1369.771096767 914.458107358 968.005877856 1300.803940325 1448.793248591 650.260188108 1108.131982406 1158.987521627 814.632618919 571.861666574 431.779129107 726.301120145 686.819849860 440.989210027 628.559571315 774.181450336 341.414391008 623.251599632 625.406291640 -8.563433465 274.444845029 960.497506386 1027.915852339 1427.073454534 1380.595704167 1135.715704247 922.971956866 1210.078456004 1033.539955665 1328.814610080 1229.658612622 1046.919873370 777.771241550 255.992059134 210.859194092 60.118012591 206.054706181 859.888324610 828.633694175 218.393863788 683.484844643 202.824373235 545.689363654 1191.578498630 937.830182167 862.854054320 1157.250660515 1128.007222731 877.374884323 822.785109804 1132.374911010 799.397289084 788.836708749 284.307136789 167.692601128 147.668094062 749.290428812 221.695724594 -41.261859821 316.689951242 223.055247952 1163.365833665 -73.034883926 536.743946927 246.107794480 5.154360739 819.556058979 1015.396736590 733.286198375 584.779225226 249.390372742 150.773896508 229.864388382 177.926114929 192.317584420 95.233180697 304.857378394 594.424406746 1032.193214825 740.127990340 351.810148915 390.452071449 409.533218599 554.137545643 
    </DataArray>
    <DataArray Name="Density" type="Float32" Format="ascii">
    2040.530631530 2040.482852752 2040.302870478 2040.166813688 2040.316207448 2040.475601044 2040.211358848 2040.066237749 2040.182787305 2040.530894354 2040.277441962 2040.078030479 2040.174228485 2040.098947496 2040.424884914 2040.004318451 2039.999344185 2040.083020888 2040.192023796 2047.612840806 2040.181296583 2041.686559460 2054.730718486 2053.019741547 2040.091976850 2040.028286312 2040.042734147 2040.041134220 2039.991898116 2040.073500690 2039.926615713 2039.992830993 2039.979697235 2040.033332243 2059.922551473 2056.510778681 2070.054525092 2068.022173515 2067.267769938 2040.013935690 2047.163341688 2039.909792433 2040.038797268 2040.021004096 2040.026798990 2039.952076879 2054.587945875 2039.988784167 2084.840895106 2048.931977995 2040.203859244 2092.807869432 2039.939404592 2040.007085845 2048.947874062 2040.152259803 2042.939290693 2040.106696308 2040.056620981 2046.357457487 2052.043929463 2089.302678422 2096.944263898 2055.108136247 2063.593009099 2040.168117326 2042.959302758 2039.906125330 2040.193704857 2040.188469530 2040.374572701 2042.420347937 2040.162333359 2039.737662979 2039.378866830 2040.134401107 2039.966226906 2084.796823085 2040.003395038 2118.481373660 2050.303896253 2039.661447715 2040.457163604 2039.680713058 2045.484557701 2040.044380551 2039.885586945 2040.673170471 2038.850118438 2119.899951082 2040.192265660 2040.083854266 2040.323865773 2038.305925724 2143.118700822 2039.898822612 2039.855543389 2042.178847706 2138.515932078 2140.934442431 2039.576162172 2054.019661741 2057.216392378 2040.110950761 2039.322630530 2040.046137532 2123.091259623 2039.808304357 2039.425650713 2129.213289551 2039.957611341 2040.646813933 2102.444785163 2040.503017555 2146.062587964 2041.099886593 2040.228724622 2040.046794390 2040.251044344 2039.695952412 2039.489193897 2039.933523052 2040.337548961 2040.759133476 2040.527385087 2040.846042197 2040.664114134 2039.907755445 2040.302752943 2040.250044056 2039.346933658 2039.083035970 2039.891998942 2040.959450749 2041.084146138 2039.978782042 2040.593372409 2040.590209223 2040.064212990 2039.795410643 2039.871859642 2040.272846058 2040.384165881 2040.606791373 2040.370703519 2040.613341935 2040.256055784 2040.095255007 2040.300065464 2040.419151464 2047.287707063 2040.095447117 2040.263741750 2040.085952883 2040.291992545 2053.931831016 2044.776439044 2040.027131464 2040.130981314 2039.987514914 2040.370171750 2040.301605772 2039.917423181 2040.109089748 2040.136154105 2043.113815857 2049.935887043 2063.273986470 2040.074435138 2051.859795649 2040.036700091 2077.959745711 2047.690564812 2041.703235591 2039.994072917 2040.278381630 2040.369812124 2039.659417584 2040.102247665 2040.131065578 2040.836318350 2114.048728388 2040.668074301 2039.790254200 2098.756963298 2041.446073283 2040.086580440 2053.320898105 2062.579840994 2070.268509125 2052.414246734 2040.008779110 2063.703797906 2040.066642120 2062.212935946 2047.746288382 2040.488370155 2039.838458123 2040.031756220 2040.143679531 2040.132957113 2234.373754416 2040.775705187 2054.078992832 2067.385463309 2040.369368660 2090.258452080 2090.854170925 2078.009001421 2039.619262549 2111.806004886 2040.764345571 2047.090206340 2039.415370324 2039.921721534 2081.440168784 2039.799400657 2093.604794474 2041.277903594 2177.057004801 2040.637694140 2040.494029425 2160.921918124 2279.233842037 2041.540065558 2039.968819723 2040.382595574 2061.101593851 2117.511876604 2106.203508422 2076.236916359 2045.442462545 2038.968897530 2176.019721086 2040.793101503 2039.472353118 2045.470887770 2052.492139433 2040.500917265 2231.177970051 2040.535639268 2147.225927338 2040.197676814 2040.595395707 2039.780306005 2040.216953991 2040.621181751 2040.439505180 2040.608645110 2040.451695053 
    </DataArray>
    <DataArray Name="Velocity" type="Float32"  NumberOfComponents="3" Format="ascii">