<?xml version="1.0"?>
<VTKFile type="PolyData" version="0.1" byte_order="LittleEndian">
 <PolyData>
  <Piece Name ="WaterBlock" NumberOfPoints="2067" NumberOfVerts="2067">
   <Points>
    <DataArray Name="Position" type="Float32"  NumberOfComponents="3" Format="ascii">
    0.01 0.0113353 0 0.05 0.0113353 0 0.03 0.0113353 0 0.07 0.0113353 0 0.09 0.0113353 0 0.13 0.0113353 0 0.11 0.0113353 0 0.17 0.0113353 0 0.19 0.0113353 0 0.15 0.0113353 0 0.01 0.0513353 0 0.01 0.0313353 0 0.01 0.0713353 0 0.01 0.0913353 0 0.01 0.111335 0 0.01 0.131335 0 0.01 0.151335 0 0.0107816 0.181513 0 0.05 0.0513353 0 0.03 0.0513353 0 0.05 0.0313353 0 0.03 0.0313353 0 0.07 0.0513353 0 0.09 0.0513353 0 0.07 0.0313353 0 0.09 0.0313353 0 0.05 0.0913353 0 0.03 0.0713353 0 0.03 0.0913353 0 0.05 0.0713353 0 0.09 0.0913353 0 0.07 0.0913353 0 0.09 0.0713353 0 0.07 0.0713353 0 0.13 0.0313353 0 0.13 0.0513353 0 0.11 0.0313353 0 0.11 0.0513353 0 0.17 0.0513353 0 0.19 0.0513353 0 0.17 0.0313353 0 0.19 0.0313353 0 0.15 0.0313353 0 0.15 0.0513353 0 0.11 0.0913353 0 0.11 0.0713353 0 0.13 0.0913353 0 0.13 0.0713353 0 0.15 0.0713353 0 0.19 0.0713353 0 0.19 0.0913353 0 0.17 0.0913353 0 0.15 0.0913353 0 0.17 0.0713353 0 0.05 0.111335 0 0.03 0.111335 0 0.05 0.131335 0 0.03 0.131335 0 0.07 0.111335 0 0.09 0.131335 0 0.09 0.111335 0 0.07 0.131335 0 0.03 0.151335 0 0.05 0.151335 0 0.0186546 0.167972 0 0.0407721 0.184944 0 0.0446205 0.169467 0 0.09 0.151335 0 0.07 0.151335 0 0.065252 0.172544 0 0.0931383 0.189517 0 0.0694457 0.190078 0 0.084421 0.170026 0 0.13 0.111335 0 0.13 0.131335 0 0.11 0.131335 0 0.11 0.111335 0 0.19 0.131335 0 0.15 0.111335 0 0.19 0.111335 0 0.17 0.111335 0 0.15 0.131335 0 0.17 0.131335 0 0.104898 0.171583 0 0.11 0.151335 0 0.13 0.151335 0 0.136983 0.193935 0 0.117462 0.188057 0 0.145714 0.171535 0 0.125903 0.170019 0 0.154735 0.192176 0 0.15 0.151335 0 0.19 0.151335 0 0.17 0.151335 0 0.184052 0.169789 0 0.173465 0.192686 0 0.164496 0.171525 0 0.19154 0.194366 0 0.23 0.0113353 0 0.21 0.0113353 0 0.27 0.0113353 0 0.25 0.0113353 0 0.31 0.0113353 0 0.33 0.0113353 0 0.29 0.0113353 0 0.37 0.0113353 0 0.35 0.0113353 0 0.39 0.0113353 0 0.41 0.0113353 0 0.47 0.0113353 0 0.45 0.0113353 0 0.43 0.0113353 0 0.49 0.0113353 0 0.51 0.0113353 0 0.55 0.0113353 0 0.53 0.0113353 0 0.21 0.0313353 0 0.23 0.0513353 0 0.21 0.0513353 0 0.23 0.0313353 0 0.27 0.0313353 0 0.25 0.0513353 0 0.27 0.0513353 0 0.25 0.0313353 0 0.21 0.0913353 0 0.23 0.0913353 0 0.21 0.0713353 0 0.23 0.0713353 0 0.25 0.0713353 0 0.25 0.0913353 0 0.27 0.0913353 0 0.27 0.0713353 0 0.31 0.0313353 0 0.29 0.0313353 0 0.33 0.0313353 0 0.29 0.0513353 0 0.33 0.0513353 0 0.31 0.0513353 0 0.35 0.0313353 0 0.35 0.0513353 0 0.37 0.0513353 0 0.37 0.0313353 0 0.31 0.0913353 0 0.31 0.0713353 0 0.33 0.0713353 0 0.29 0.0713353 0 0.29 0.0913353 0 0.33 0.0913353 0 0.35 0.0913353 0 0.37 0.0713353 0 0.35 0.0713353 0 0.37 0.0913353 0 0.21 0.131335 0 0.23 0.111335 0 0.23 0.131335 0 0.21 0.111335 0 0.25 0.131335 0 0.27 0.131335 0 0.27 0.111335 0 0.25 0.111335 0 0.21 0.151335 0 0.23 0.151335 0 0.219463 0.193621 0 0.234295 0.17267 0 0.215393 0.168984 0 0.2377 0.19621 0 0.200473 0.178687 0 0.27 0.151335 0 0.25 0.151335 0 0.266502 0.170359 0 0.249791 0.175997 0 0.284894 0.172867 0 0.268122 0.193881 0 0.31 0.111335 0 0.29 0.111335 0 0.33 0.131335 0 0.31 0.131335 0 0.29 0.131335 0 0.33 0.111335 0 0.35 0.111335 0 0.37 0.131335 0 0.37 0.111335 0 0.35 0.131335 0 0.288846 0.190885 0 0.29 0.151335 0 0.305031 0.168416 0 0.33 0.151335 0 0.31 0.151335 0 0.32192 0.178669 0 0.309174 0.191641 0 0.35 0.151335 0 0.37 0.151335 0 0.337924 0.168691 0 0.341859 0.18891 0 0.37627 0.171199 0 0.363323 0.193673 0 0.359088 0.172077 0 0.41 0.0313353 0 0.39 0.0513353 0 0.41 0.0513353 0 0.39 0.0313353 0 0.43 0.0513353 0 0.43 0.0313353 0 0.45 0.0513353 0 0.47 0.0513353 0 0.45 0.0313353 0 0.47 0.0313353 0 0.39 0.0913353 0 0.39 0.0713353 0 0.41 0.0713353 0 0.41 0.0913353 0 0.43 0.0713353 0 0.47 0.0913353 0 0.45 0.0913353 0 0.45 0.0713353 0 0.47 0.0713353 0 0.43 0.0913353 0 0.49 0.0513353 0 0.51 0.0313353 0 0.49 0.0313353 0 0.51 0.0513353 0 0.53 0.0313353 0 0.53 0.0513353 0 0.55 0.0513353 0 0.55 0.0313353 0 0.49 0.0913353 0 0.51 0.0713353 0 0.49 0.0713353 0 0.51 0.0913353 0 0.53 0.0913353 0 0.53 0.0713353 0 0.55 0.0913353 0 0.55 0.0713353 0 0.39 0.131335 0 0.39 0.111335 0 0.41 0.131335 0 0.41 0.111335 0 0.45 0.131335 0 0.47 0.111335 0 0.47 0.131335 0 0.45 0.111335 0 0.43 0.131335 0 0.43 0.111335 0 0.425624 0.193461 0 0.398236 0.169818 0 0.41 0.151335 0 0.39 0.151335 0 0.387558 0.188279 0 0.406581 0.194057 0 0.416478 0.1732 0 0.46614 0.188929 0 0.45 0.151335 0 0.446038 0.187327 0 0.434584 0.170066 0 0.47 0.151335 0 0.43 0.151335 0 0.457815 0.169525 0 0.49 0.131335 0 0.51 0.111335 0 0.49 0.111335 0 0.51 0.131335 0 0.53 0.131335 0 0.55 0.131335 0 0.55 0.111335 0 0.53 0.111335 0 0.51 0.151335 0 0.496319 0.171047 0 0.49 0.151335 0 0.513385 0.190788 0 0.495049 0.192468 0 0.478528 0.17177 0 0.516944 0.170305 0 0.55 0.151335 0 0.55504 0.172463 0 0.551136 0.193836 0 0.536601 0.170972 0 0.53 0.151335 0 0.531919 0.192242 0 0.00944614 0.233241 0 0.00707129 0.203333 0 0.0108565 0.252838 0 0.0105211 0.272654 0 0.00979479 0.3031 0 0.0107261 0.323364 0 0.0106114 0.359001 0 0.019349 0.219736 0 0.050411 0.229825 0 0.0506236 0.2008 0 0.0261932 0.196703 0 0.0383725 0.215023 0 0.0310244 0.239926 0 0.0858305 0.237549 0 0.0659432 0.22041 0 0.0981238 0.205428 0 0.0939312 0.223222 0 0.0752562 0.206438 0 0.0396845 0.275961 0 0.0294651 0.259907 0 0.0483896 0.250957 0 0.0580435 0.274186 0 0.0687669 0.261499 0 0.0947259 0.255539 0 0.0764224 0.285887 0 0.0686845 0.243175 0 0.0907794 0.271597 0 0.137032 0.2414 0 0.130172 0.222566 0 0.112763 0.228606 0 0.1482 0.213871 0 0.120343 0.206707 0 0.178963 0.231741 0 0.166962 0.213727 0 0.156248 0.232394 0 0.187991 0.214017 0 0.143549 0.269644 0 0.149081 0.286421 0 0.112947 0.271771 0 0.124364 0.283889 0 0.11159 0.247839 0 0.128358 0.257308 0 0.164598 0.267841 0 0.177294 0.283894 0 0.188209 0.267957 0 0.156001 0.251025 0 0.178699 0.250745 0 0.0332728 0.331981 0 0.0521621 0.330701 0 0.0167307 0.288167 0 0.0389127 0.292431 0 0.0300773 0.311854 0 0.0488605 0.309434 0 0.0975482 0.290814 0 0.0645651 0.298055 0 0.0699706 0.320341 0 0.100427 0.324894 0 0.0840238 0.308769 0 0.0165321 0.376319 0 0.0531922 0.371176 0 0.0516506 0.349037 0 0.0128879 0.340763 0 0.032 0.353137 0 0.0362782 0.37273 0 0.0816744 0.334364 0 0.0723603 0.368299 0 0.0933515 0.365962 0 0.0714526 0.35025 0 0.0965607 0.347101 0 0.107613 0.303227 0 0.117868 0.321135 0 0.146612 0.309468 0 0.129645 0.300318 0 0.137189 0.325759 0 0.19366 0.327783 0 0.165362 0.319347 0 0.163657 0.297971 0 0.183818 0.313559 0 0.190763 0.295811 0 0.135439 0.376268 0 0.136021 0.356905 0 0.113292 0.359503 0 0.118827 0.34121 0 0.144095 0.342023 0 0.118168 0.379132 0 0.191526 0.370543 0 0.164267 0.335726 0 0.184573 0.344411 0 0.166948 0.35429 0 0.173532 0.374597 0 0.155362 0.368419 0 0.00830274 0.413239 0 0.00909152 0.390607 0 0.00801995 0.465414 0 0.00634634 0.497901 0 0.00668665 0.527611 0 0.0317083 0.423693 0 0.0396238 0.393496 0 0.0271126 0.403258 0 0.0490499 0.417945 0 0.0579387 0.396271 0 0.0737363 0.387489 0 0.0965982 0.384457 0 0.0881268 0.400688 0 0.066372 0.414298 0 0.0873727 0.419185 0 0.0434415 0.440197 0 0.013722 0.447947 0 0.0328154 0.454833 0 0.0142153 0.432147 0 0.0503878 0.466185 0 0.0610098 0.445011 0 0.07311 0.433701 0 0.093731 0.439833 0 0.0886548 0.457353 0 0.0700236 0.463268 0 0.107465 0.416297 0 0.142088 0.396604 0 0.114142 0.397373 0 0.128153 0.409968 0 0.144474 0.420701 0 0.194048 0.408381 0 0.16217 0.420288 0 0.156846 0.390989 0 0.188171 0.425128 0 0.169516 0.405293 0 0.18475 0.391417 0 0.126942 0.463216 0 0.110654 0.452648 0 0.133099 0.435211 0 0.114358 0.433029 0 0.141351 0.451207 0 0.190465 0.451168 0 0.160557 0.464833 0 0.174202 0.436778 0 0.179635 0.463567 0 0.158308 0.445109 0 0.0305339 0.508137 0 0.0312374 0.474843 0 0.0399607 0.493305 0 0.0575256 0.503346 0 0.0166112 0.484406 0 0.103614 0.471995 0 0.0782692 0.499537 0 0.099542 0.490129 0 0.0818762 0.479726 0 0.0599522 0.48342 0 0.0967855 0.512481 0 0.0466029 0.53576 0 0.0152214 0.551509 0 0.0291199 0.540795 0 0.0205803 0.519631 0 0.0506841 0.520263 0 0.043593 0.557043 0 0.066792 0.552322 0 0.077716 0.517879 0 0.100499 0.53214 0 0.0698396 0.534153 0 0.0871012 0.544389 0 0.0950274 0.563481 0 0.133323 0.506126 0 0.122352 0.484364 0 0.11516 0.504507 0 0.138802 0.478687 0 0.150292 0.49977 0 0.158469 0.482166 0 0.179145 0.504684 0 0.195193 0.478817 0 0.178367 0.48712 0 0.16317 0.513058 0 0.14493 0.525104 0 0.121488 0.524827 0 0.145759 0.561188 0 0.127955 0.559846 0 0.114949 0.542566 0 0.138604 0.540892 0 0.179677 0.530476 0 0.162738 0.535358 0 0.163358 0.555303 0 0.18173 0.555346 0 0.211394 0.207824 0 0.204509 0.224872 0 0.226337 0.228523 0 0.235773 0.215728 0 0.286899 0.210138 0 0.2487 0.236897 0 0.25873 0.223399 0 0.256077 0.202362 0 0.275352 0.224016 0 0.197085 0.243187 0 0.207757 0.283021 0 0.228126 0.270478 0 0.207116 0.264343 0 0.23493 0.251094 0 0.217116 0.247158 0 0.263288 0.279211 0 0.279038 0.245137 0 0.263795 0.25298 0 0.250928 0.264201 0 0.280855 0.274488 0 0.245423 0.287511 0 0.312216 0.234621 0 0.295984 0.232948 0 0.305124 0.211635 0 0.326337 0.204269 0 0.328531 0.220848 0 0.340847 0.235671 0 0.348701 0.206134 0 0.371282 0.223086 0 0.378237 0.20349 0 0.354297 0.225956 0 0.311902 0.284837 0 0.291144 0.258357 0 0.307464 0.263306 0 0.29434 0.286459 0 0.327312 0.271171 0 0.32109 0.24868 0 0.365095 0.274892 0 0.340489 0.257734 0 0.357846 0.25337 0 0.371682 0.245747 0 0.348944 0.279538 0 0.379725 0.284918 0 0.228131 0.289566 0 0.230994 0.332402 0 0.208359 0.30456 0 0.211874 0.32682 0 0.225754 0.309636 0 0.244188 0.316867 0 0.25791 0.302892 0 0.254811 0.332071 0 0.275095 0.299773 0 0.270169 0.322484 0 0.240148 0.352341 0 0.230844 0.368346 0 0.211425 0.370854 0 0.218936 0.347989 0 0.200498 0.35228 0 0.260908 0.350336 0 0.273084 0.367307 0 0.253232 0.370117 0 0.280822 0.34613 0 0.288928 0.329282 0 0.290909 0.308897 0 0.3
[...]
   <PointData  Vectors="vector">
    <DataArray Name="SortedParticle_ID" type="Int32" Format="ascii">
    0 1 2 3 4 5 6 7 8 9 10 11 12 13 14 15 16 17 18 19 20 21 22 23 24 25 26 27 28 29 30 31 32 33 34 35 36 37 38 39 40 41 42 43 44 45 46 47 48 49 50 51 52 53 54 55 56 57 58 59 60 61 62 63 64 65 66 67 68 69 70 71 72 73 74 75 76 77 78 79 80 81 82 83 84 85 86 87 88 89 90 91 92 93 94 95 96 97 98 99 100 101 102 103 104 105 106 107 108 109 110 111 112 113 114 115 116 117 118 119 120 121 122 123 124 125 126 127 128 129 130 131 132 133 134 135 136 137 138 139 140 141 142 143 144 145 146 147 148 149 150 151 152 153 154 155 156 157 158 159 160 161 162 163 164 165 166 167 168 169 170 171 172 173 174 175 176 177 178 179 180 181 182 183 184 185 186 187 188 189 190 191 192 193 194 195 196 197 198 199 200 201 202 203 204 205 206 207 208 209 210 211 212 213 214 215 216 217 218 219 220 221 222 223 224 225 226 227 228 229 230 231 232 233 234 235 236 237 238 239 240 241 242 243 244 245 246 247 248 249 250 251 252 253 254 255 256 257 258 259 260 261 262 263 264 265 266 267 268 269 270 271 272 273 274 275 276 277 278 279 280 281 282 283 284 285 286 287 288 289 290 291 292 293 294 295 296 297 298 299 300 301 302 303 304 305 306 307 308 309 310 311 312 313 314 315 316 317 318 319 320 321 322 323 324 325 326 327 328 329 330 331 332 333 334 335 336 337 338 339 340 341 342 343 344 345 346 347 348 349 350 351 352 353 354 355 356 357 358 359 360 361 362 363 364 365 366 367 368 369 370 371 372 373 374 375 376 377 378 379 380 381 382 383 384 385 386 387 388 389 390 391 392 393 394 395 396 397 398 399 400 401 402 403 404 405 406 407 408 409 410 411 412 413 414 415 416 417 418 419 420 421 422 423 424 425 426 427 428 429 430 431 432 433 434 435 436 437 438 439 440 441 442 443 444 445 446 447 448 449 450 451 452 453 454 455 456 457 458 459 460 461 462 463 464 465 466 467 468 469 470 471 472 473 474 475 476 477 478 479 480 481 482 483 484 485 486 487 488 489 490 491 492 493 494 495 496 497 498 499 500 501 502 503 504 505 506 507 508 509 510 511 512 513 514 515 516 517 518 519 520 521 522 523 524 525 526 527 528 529 530 531 532 533 534 535 536 537 538 539 540 541 542 543 544 545 546 547 548 549 550 551 552 553 554 555 556 557 558 559 560 561 562 563 564 565 566 567 568 569 570 571 572 573 574 575 576 577 578 579 580 581 582 583 584 585 586 587 588 589 590 591 592 593 594 595 596 597 598 599 600 601 602 603 604 605 606 607 608 609 610 611 612 613 614 615 616 617 618 619 620 621 622 623 624 625 626 627 628 629 630 631 632 633 634 635 636 637 638 639 640 641 642 643 644 645 646 647 648 649 650 651 652 653 654 655 656 657 658 659 660 661 662 663 664 665 666 667 668 669 670 671 672 673 674 675 676 677 678 679 680 681 682 683 684 685 686 687 688 689 690 691 692 693 694 695 696 697 698 699 700 701 702 703 704 705 706 707 708 709 710 711 712 713 714 715 716 717 718 719 720 721 722 723 724 725 726 727 728 729 730 731 732 733 734 735 736 737 738 739 740 741 742 743 744 745 746 747 748 749 750 751 752 753 754 755 756 757 758 759 760 761 762 763 764 765 766 767 768 769 770 771 772 773 774 775 776 777 778 779 780 781 782 783 784 785 786 787 788 789 790 791 792 793 794 795 796 797 798 799 800 801 802 803 804 805 806 807 808 809 810 811 812 813 814 815 816 817 818 819 820 821 822 823 824 825 826 827 828 829 830 831 832 833 834 835 836 837 838 839 840 841 842 843 844 845 846 847 848 849 850 851 852 853 854 855 856 857 858 859 860 861 862 863 864 865 866 867 868 869 870 871 872 873 874 875 876 877 878 879 880 881 882 883 884 885 886 887 888 889 890 891 892 893 894 895 896 897 898 899 900 901 902 903 904 905 906 907 908 909 910 911 912 913 914 915 916 917 918 919 920 921 922 923 924 925 926 927 928 929 930 931 932 933 934 935 936 937 938 939 940 941 942 943 944 945 946 947 948 949 950 951 952 953 954 955 956 957 958 959 960 961 962 963 964 965 966 967 968 969 970 971 972 973 974 975 976 977 978 979 980 981 982 983 984 985 986 987 988 989 990 991 992 993 994 995 996 997 998 999 1000 1001 1002 1003 1004 1005 1006 1007 1008 1009 1010 1011 1012 1013 1014 1015 1016 1017 1018 1019 1020 1021 1022 1023 1024 1025 1026 1027 1028 1029 1030 1031 1032 1033 1034 1035 1036 1037 1038 1039 1040 1041 1042 1043 1044 1045 1046 1047 1048 1049 1050 1051 1052 1053 1054 1055 1056 1057 1058 1059 1060 1061 1062 1063 1064 1065 1066 1067 1068 1069 1070 1071 1072 1073 1074 1075 1076 1077 1078 1079 1080 1081 1082 1083 1084 1085 1086 1087 1088 1089 1090 1091 1092 1093 1094 1095 1096 1097 1098 1099 1100 1101 1102 1103 1104 1105 1106 1107 1108 1109 1110 1111 1112 1113 1114 1115 1116 1117 1118 1119 1120 1121 1122 1123 1124 1125 1126 1127 1128 1129 1130 1131 1132 1133 1134 1135 1136 1137 1138 1139 1140 1141 1142 1143 1144 1145 1146 1147 1148 1149 1150 1151 1152 1153 1154 1155 1156 1157 1158 1159 1160 1161 1162 1163 1164 1165 1166 1167 1168 1169 1170 1171 1172 1173 1174 1175 1176 1177 1178 1179 1180 1181 1182 1183 1184 1185 1186 1187 1188 1189 1190 1191 1192 1193 1194 1195 1196 1197 1198 1199 1200 1201 1202 1203 1204 1205 1206 1207 1208 1209 1210 1211 1212 1213 1214 1215 1216 1217 1218 1219 1220 1221 1222 1223 1224 1225 1226 1227 1228 1229 1230 1231 1232 1233 1234 1235 1236 1237 1238 1239 1240 1241 1242 1243 1244 1245 1246 1247 1248 1249 1250 1251 1252 1253 1254 1255 1256 1257 1258 1259 1260 1261 1262 1263 1264 1265 1266 1267 1268 1269 1270 1271 1272 1273 1274 1275 1276 1277 1278 1279 1280 1281 1282 1283 1284 1285 1286 1287 1288 1289 1290 1291 1292 1293 1294 1295 1296 1297 1298 1299 1300 1301 1302 1303 1304 1305 1306 1307 1308 1309 1310 1311 1312 1313 1314 1315 1316 1317 1318 1319 1320 1321 1322 1323 1324 1325 1326 1327 1328 1329 1330 1331 1332 1333 1334 1335 1336 1337 1338 1339 1340 1341 1342 1343 1344 1345 1346 1347 1348 1349 1350 1351 1352 1353 1354 1355 1356 1357 1358 1359 1360 1361 1362 1363 1364 1365 1366 1367 1368 1369 1370 1371 1372 1373 1374 1375 1376 1377 1378 1379 1380 1381 1382 1383 1384 1385 1386 1387 1388 1389 1390 1391 1392 1393 1394 1395 1396 1397 1398 1399 1400 1401 1402 1403 1404 1405 1406 1407 1408 1409 1410 1411 1412 1413 1414 1415 1416 1417 1418 1419 1420 1421 1422 1423 1424 1425 1426 1427 1428 1429 1430 1431 1432 1433 1434 1435 1436 1437 1438 1439 1440 1441 1442 1443 1444 1445 1446 1447 1448 1449 1450 1451 1452 1453 1454 1455 1456 1457 1458 1459 1460 1461 1462 1463 1464 1465 1466 1467 1468 1469 1470 1471 1472 1473 1474 1475 1476 1477 1478 1479 1480 1481 1482 1483 1484 1485 1486 1487 1488 1489 1490 1491 1492 1493 1494 1495 1496 1497 1498 1499 1500 1501 1502 1503 1504 1505 1506 1507 1508 1509 1510 1511 1512 1513 1514 1515 1516 1517 1518 1519 1520 1521 1522 1523 1524 1525 1526 1527 1528 1529 1530 1531 1532 1533 1534 1535 1536 1537 1538 1539 1540 1541 1542 1543 1544 1545 1546 1547 1548 1549 1550 1551 1552 1553 1554 1555 1556 1557 1558 1559 1560 1561 1562 1563 1564 1565 1566 1567 1568 1569 1570 1571 1572 1573 1574 1575 1576 1577 1578 1579 1580 1581 1582 1583 1584 1585 1586 1587 1588 1589 1590 1591 1592 1593 1594 1595 1596 1597 1598 1599 1600 1601 1602 1603 1604 1605 1606 1607 1608 1609 1610 1611 1612 1613 1614 1615 1616 1617 1618 1619 1620 1621 1622 1623 1624 1625 1626 1627 1628 1629 1630 1631 1632 1633 1634 1635 1636 1637 1638 1639 1640 1641 1642 1643 1644 1645 1646 1647 1648 1649 1650 1651 1652 1653 1654 1655 1656 1657 1658 1659 1660 1661 1662 1663 1664 1665 1666 1667 1668 1669 1670 1671 1672 1673 1674 1675 1676 1677 1678 1679 1680 1681 1682 1683 1684 1685 1686 1687 1688 1689 1690 1691 1692 1693 1694 1695 1696 1697 1698 1699 1700 1701 1702 1703 1704 1705 1706 1707 1708 1709 1710 1711 1712 1713 1714 1715 1716 1717 1718 1719 1720 1721 1722 1723 1724 1725 1726 1727 1728 1729 1730 1731 1732 1733 1734 1735 1736 1737 1738 1739 1740 1741 1742 1743 1744 1745 1746 1747 1748 1749 1750 1751 1752 1753 1754 1755 1756 1757 1758 1759 1760 1761 1762 1763 1764 1765 1766 1767 1768 1769 1770 1771 1772 1773 1774 1775 1776 1777 1778 1779 1780 1781 1782 1783 1784 1785 1786 1787 1788 1789 1790 1791 1792 1793 1794 1795 1796 1797 1798 1799 1800 1801 1802 1803 1804 1805 1806 1807 1808 1809 1810 1811 1812 1813 1814 1815 1816 1817 1818 1819 1820 1821 1822 1823 1824 1825 1826 1827 1828 1829 1830 1831 1832 1833 1834 1835 1836 1837 1838 1839 1840 1841 1842 1843 1844 1845 1846 1847 1848 1849 1850 1851 1852 1853 1854 1855 1856 1857 1858 1859 1860 1861 1862 1863 1864 1865 1866 1867 1868 1869 1870 1871 1872 1873 1874 1875 1876 1877 1878 1879 1880 1881 1882 1883 1884 1885 1886 1887 1888 1889 1890 1891 1892 1893 1894 1895 1896 1897 1898 1899 1900 1901 1902 1903 1904 1905 1906 1907 1908 1909 1910 1911 1912 1913 1914 1915 1916 1917 1918 1919 1920 1921 1922 1923 1924 1925 1926 1927 1928 1929 1930 1931 1932 1933 1934 1935 1936 1937 1938 1939 1940 1941 1942 1943 1944 1945 1946 1947 1948 1949 1950 1951 1952 1953 1954 1955 1956 1957 1958 1959 1960 1961 1962 1963 1964 1965 1966 1967 1968 1969 1970 1971 1972 1973 1974 1975 1976 1977 1978 1979 1980 1981 1982 1983 1984 1985 1986 1987 1988 1989 1990 1991 1992 1993 1994 1995 1996 1997 1998 1999 2000 2001 2002 2003 2004 2005 2006 2007 2008 2009 2010 2011 2012 2013 2014 2015 2016 2017 2018 2019 2020 2021 2022 2023 2024 2025 2026 2027 2028 2029 2030 2031 2032 2033 2034 2035 2036 2037 2038 2039 2040 2041 2042 2043 2044 2045 2046 2047 2048 2049 2050 2051 2052 2053 2054 2055 2056 2057 2058 2059 2060 2061 2062 2063 2064 2065 2066 
    </DataArray>
    <DataArray Name="OriginalID" type="Int32" Format="ascii">
    0 72 36 108 144 216 180 288 324 252 2 1 3 4 5 6 7 1829 74 38 73 37 110 146 109 145 76 39 40 75 148 112 147 111 217 218 181 182 290 326 289 325 253 254 184 183 220 219 255 327 328 292 256 291 77 41 78 42 113 150 149 114 43 79 1805 1664 427 151 115 2162 1856 2050 2096 221 222 186 185 330 257 329 293 258 294 2189 187 223 2020 489 2132 1807 1815 259 331 295 2217 2111 1855 2178 396 360 468 432 540 576 504 648 612 684 720 828 792 756 864 900 972 936 361 398 362 397 469 434 470 433 364 400 363 399 435 436 472 471 541 505 577 506 578 542 613 614 650 649 544 543 579 507 508 580 616 651 615 652 366 401 402 365 438 474 473 437 367 403 1802 1878 2127 693 2029 475 439 1361 1852 2169 2072 545 509 582 546 510 581 617 654 653 618 2068 511 913 583 547 2202 1987 619 655 2032 1903 2161 1139 2173 721 686 722 685 758 757 794 830 793 829 688 687 723 724 759 832 796 795 831 760 866 901 865 902 937 938 974 973 868 903 867 904 940 939 976 975 690 689 726 725 798 833 834 797 762 761 406 597 727 691 1978 2017 1875 2172 799 1986 2085 835 763 2084 870 905 869 906 942 978 977 941 907 982 871 2143 2048 2168 2004 979 2194 1919 2134 943 2152 1310 84 1241 1844 1766 851 1868 1257 1721 71 1339 1928 301 712 236 2023 991 2265 1722 286 1687 323 93 1933 1990 1069 1562 120 351 212 98 1384 485 1001 284 1180 20 27 386 142 1208 1871 450 249 382 493 2125 336 50 170 1705 2157 967 415 1732 165 1890 2133 778 164 106 806 28 1964 313 377 1965 227 100 241 2158 2002 2136 55 2164 349 166 132 231 240 413 196 1954 138 1930 48 85 95 119 51 47 2119 380 742 1757 395 2150 167 140 198 174 202 210 248 204 33 2170 315 263 1318 394 1904 2058 2057 1793 2091 81 154 97 156 2104 205 121 2159 235 123 56 285 271 277 24 447 83 16 125 88 232 2145 341 161 239 698 2074 451 1918 283 379 275 251 1188 1288 135 1307 1746 195 1377 94 35 1854 200 104 1861 282 17 122 91 21 58 139 1902 87 118 143 321 233 49 23 64 137 18 2124 247 1988 2016 2041 2037 1775 908 2081 2137 411 1385 679 190 889 2090 564 1690 2056 676 191 2195 2015 1124 1996 1827 980 2086 1961 987 2148 2033 1909 694 348 2014 2077 1934 1895 1100 2052 2064 2022 1338 1994 1806 347 339 226 1723 63 1300 173 1958 486 129 25 2135 66 1820 208 488 1943 2171 1912 1639 2043 2118 2100 1102 2083 1099 1869 246 355 1430 2259 1901 1246 767 2010 2044 445 872 2144 1916 2047 2109 1884 501 1161 2151 637 1955 2045 521 520 519 596 371 443 2071 2167 1923 1959 1880 446 2079 408 2006 1088 1999 2107 1989 643 522 1968 1879 2042 2069 599 1908 2102 800 1170 2117 571 1173 1172 2040 499 2108 369 513 441 1997 2018 2062 843 2009 1892 497 981 2067 1134 260 1863 555 1949 1167 841 2176 1065 1095 1931 2053 2105 2076 566 568 1983 1016 1860 948 1090 1286 481 26 201 308 2203 169 309 61 465 65 2248 52 1745 155 265 12 1924 176 387 1812 172 1731 306 893 297 345 859 1753 368 1675 2034 1330 2073 1507 68 1995 1660 923 527 467 430 1240 495 1998 131 46 162 1977 99 158 1591 1870 177 136 53 2089 60 31 276 337 429 462 393 2260 1771 279 454 494 491 2038 13 850 2184 128 1039 305 354 189 2269 312 1115 29 281 307 2051 765 2110 523 442 404 1952 1911 574 1896 534 766 1296 1962 1538 656 2140 425 584 728 1981 482 2092 2031 842 537 876 1059 533 1913 1887 490 561 549 1017 675 1019 1894 1882 1130 503 2046 1297 1404 2270 476 1956 2115 1984 1938 557 551 464 636 300 528 1859 635 1321 600 595 1104 1925 620 1178 518 502 601 1897 517 1033 1864 645 572 1024 802 1200 640 1972 2087 633 1540 589 480 804 1044 1008 1116 1080 1152 1045 1046 1009 1010 1153 1082 1081 1117 1154 1118 1048 1047 1012 1011 1084 1120 1083 1156 1119 1155 1014 1049 1013 1050 1158 1157 1122 1085 1086 1121 2219 2204 2141 2113 1015 1051 2198 2187 1123 1159 1087 2030 2099 2035 587 946 2065 1136 1135 2021 911 984 968 1176 1056 672 1768 1103 1165 1629 1142 1254 2275 1838 1344 877 1126 1525 1658 1375 1092 2253 1605 1951 695 1128 1125 839 2138 1370 705 1061 591 815 1093 1053 1950 1736 1127 1756 1098 1543 736 2245 567 1744 710 1055 1168 735 912 947 1094 1922 741 1595 844 891 1057 585 554 1164 1219 1915 874 1383 2213 2061 670 592 708 2001 837 525 1340 669 2019 594 514 873 703 1885 1277 773 1037 2153 1287 1243 1866 1349 1256 1199 629 1341 862 707 606 667 1475 1264 1326 1242 1535 644 811 1939 628 1054 852 846 1279 2264 1020 1132 817 785 1686 933 1245 986 784 1441 965 461 983 1205 1322 1573 1186 1798 1096 1270 1646 1431 918 1485 1424 1026 1207 2272 1728 1174 1021 1550 1888 857 1201 1432 1029 1247 1319 1514 1476 1163 1653 1741 1600 1624 1665 1581 1621 895 1275 1523 1443 1511 1345 1547 1479 1541 1534 1162 1407 1631 1491 1323 1413 1422 1717 1448 1760 2276 1389 1369 1311 1992 1194 374 682 789 213 1821 214 152 228 352 389 1387 261 153 1944 238 273 116 266 340 2106 2116 124 194 237 274 179 303 59 159 1669 96 54 62 32 70 206 1971 1905 160 314 90 357 1435 459 457 332 211 458 1608 424 392 244 342 931 414 381 358 1935 1873 1953 44 417 2027 57 1929 117 126 14 2060 1108 1758 11 1910 197 34 311 1710 1739 102 2101 385 892 269 193 2166 317 1261 10 92 19 199 178 270 318 188 268 82 322 234 801 1862 1867 448 452 45 1787 1063 89 1433 359 536 530 598 2122 498 224 133 2005 299 1837 105 264 338 826 203 1966 428 86 346 353 492 130 316 926 532 67 134 262 375 836 320 560 1967 2013 1893 477 526 605 1353 539 1265 548 1940 2008 22 1889 1517 333 418 1920 1105 565 512 1197 1891 808 2003 1175 610 1144 729 770 30 407 989 671 666 697 1969 768 553 556 634 2012 302 412 733 1236 1466 456 1427 423 230 229 1368 2036 1937 1147 787 2103 630 1062 15 914 1259 207 570 419 1177 80 552 1076 1141 878 1881 1299 593 623 479 668 622 632 590 657 1003 1068 478 609 573 538 661 141 730 608 699 663 624 969 1179 586 662 909 626 1780 734 838 356 1022 2059 625 659 627 101 1483 2007 1985 764 1182 171 9 658 803 1140 298 422 1921 416 1262 700 1406 487 1963 373 2054 1189 421 1877 1320 745 747 1272 743 1221 706 1030 674 1217 714 1289 810 740 779 1091 1028 1079 1231 1000 813 738 952 1101 1190 702 1032 709 713 809 780 858 783 1233 1250 919 744 1496 848 819 1255 881 916 849 1298 1070 1232 1216 781 1066 997 631 665 372 677 701 771 769 1329 1223 861 879 683 647 1508 1067 863 1278 1266 883 777 932 641 752 267 1386 455 1114 215 1075 1252 1031 1396 820 1267 748 753 431 1248 774 1072 1185 1187 1635 807 776 746 646 887 717 1213 993 1064 996 1193 1042 896 1738 1280 1107 715 1225 818 854 1301 935 1274 1218 1036 680 483 1151 1202 1312 1211 1073 882 790 1555 1309 1244 69 786 1284 814 1215 296 1276 1942 1212 962 1005 1258 2024 8 1729 1324 1464 1198 1058 885 791 1171 1343 1457 897 1676 1148 1181 955 1206 788 1112 1077 921 1071 755 1400 1043 1378 1394 1294 1007 1447 1436 1249 1150 1531 1214 1160 958 1497 999 1366 1149 1038 888 1004 1932 1027 1260 718 1408 930 920 1303 884 749 929 1374 970 1993 1146 1606 1209 1283 1251 1419 1352 1192 925 1486 1222 954 898 1510 1619 971 1782 1579 1811 1129 1673 1570 1337 1423 1709 1500 985 1549 1526 1449 1399 1645 1769 1679 1594 1133 1666 1533 1576 1706 1803 1604 1680 388 1578 1652 1572 1097 1637 1052 1824 1743 1644 2273 1598 1691 1720 2258 2268 1848 1611 2256 1688 1131 1592 1566 1694 1702 384 1580 2025 1713 1438 1640 1715 1481 1840 1615 1936 1671 2070 1599 2123 2239 1785 1834 1023 2250 1735 2180 2218 1810 1774 1841 1518 1363 1415 856 860 934 1239 1111 1420 1498 992 1509 1196 1228 2255 1350 1395 453 998 390 964 1333 1367 1552 1405 1560 1471 1421 1501 1651 1569 1195 1295 960 1450 927 1204 1452 1362 1388 1488 1529 1530 1227 1184 1292 827 1365 961 719 886 1505 1191 1235 1906 1041 1539 1224 1034 963 1074 1454 1354 1334 1355 966 1991 1403 1453 1357 1567 1668 1613 1789 1590 1568 1695 376 1779 1719 1672 928 1708 1544 1348 1446 1795 1390 1707 1703 1393 1565 1426 1484 1358 1473 449 1626 1650 1381 1681 1492 2277 1778 460 1360 1545 1692 1416 1304 1391 1718 924 1617 1281 1474 1482 1402 1522 1462 1078 956 1109 1470 1563 1478 1429 1503 1346 1504 1655 1642 1410 1458 1625 1819 1575 350 1716 1512 1602 1494 1528 192 2251 1914 1733 2222 1437 1683 1574 225 1557 1472 1335 1628 103 1647 1791 1842 1846 1858 1831 1975 1725 2238 1461 1513 1477 1439 1749 1506 1638 1542 272 1623 1593 1282 1325 1524 1314 1364 1392 1425 1610 1455 1490 1414 1548 163 409 378 1643 1356 1830 1253 1463 1670 1661 319 1607 1409 1418 1616 1551 1850 304 1677 1493 2257 1588 1556 1788 1800 1851 1411 1900 1632 1382 1596 1546 391 1633 1412 1527 1499 420 1737 1809 1444 1843 343 1589 1641 1417 2197 2193 1847 1587 1627 910 1804 1553 2236 1649 1883 1823 1428 2235 1609 1459 1684 310 1648 1755 2231 463 2233 563 2237 2234 127 1601 1761 1582 175 1714 2097 2254 2182 1872 1682 1874 2244 1583 1603 2075 1818 1835 1828 242 2221 1750 1786 1636 2232 1797 2274 1790 1698 2185 500 2209 2082 1748 1689 2177 344 529 1917 1839 2201 245 988 1585 2055 2240 1614 1654 1764 1773 1659 2243 1656 1957 949 1169 1724 2263 2192 1742 1814 2228 1693 2271 1740 2212 1630 2216 2214 1699 2210 1060 168 2242 2252 1776 1813 496 1597 2247 1701 1845 2191 2126 1763 1783 2149 287 107 1712 2206 1138 1973 2246 1674 2121 1833 2241 1726 944 1018 2088 1796 1704 1799 2154 250 1762 209 1667 2220 1734 1730 1808 1767 531 1754 1468 1976 1747 2200 2208 1781 1822 2028 1898 1832 1899 2205 1927 405 2249 2160 1886 2165 1561 2026 2175 1089 1857 2229 1849 1948 1826 466 2199 1536 1711 2267 1166 2163 915 2225 2131 2181 2147 2000 2114 410 2211 278 2266 1678 1784 157 2174 1836 1770 1586 383 1853 2142 2230 243 2155 1577 280 1759 2262 1752 2139 2129 1657 1727 1979 1801 2261 1612 335 2196 2227 1825 1697 2207 1532 1765 1700 1751 
    </DataArray>
    <DataArray Name="Density" type="Float32" Format="ascii">