<?xml version="1.0"?>
<VTKFile type="PolyData" version="0.1" byte_order="LittleEndian">
 <PolyData>
  <Piece Name ="WaterBlock" NumberOfPoints="2184" NumberOfVerts="2184">
   <Points>
    <DataArray Name="Position" type="Float32"  NumberOfComponents="3" Format="ascii">
    0.01 0.00227401 0 0.05 0.00227401 0 0.03 0.00227401 0 0.09 0.00227401 0 0.07 0.00227401 0 0.13 0.00227401 0 0.11 0.00227401 0 0.19 0.00227401 0 0.15 0.00227401 0 0.17 0.00227401 0 0.01 0.022274 0 0.01 0.042274 0 0.01 0.102274 0 0.01 0.082274 0 0.01 0.062274 0 0.01 0.122274 0 0.01 0.142274 0 0.00912312 0.18907 0 0.00847733 0.161118 0 0.05 0.042274 0 0.05 0.022274 0 0.03 0.042274 0 0.03 0.022274 0 0.09 0.022274 0 0.07 0.042274 0 0.09 0.042274 0 0.07 0.022274 0 0.03 0.082274 0 0.03 0.062274 0 0.05 0.062274 0 0.05 0.102274 0 0.05 0.082274 0 0.03 0.102274 0 0.09 0.082274 0 0.07 0.082274 0 0.07 0.102274 0 0.09 0.062274 0 0.09 0.102274 0 0.07 0.062274 0 0.13 0.042274 0 0.13 0.022274 0 0.11 0.042274 0 0.11 0.022274 0 0.15 0.022274 0 0.19 0.022274 0 0.17 0.022274 0 0.15 0.042274 0 0.17 0.042274 0 0.19 0.042274 0 0.13 0.102274 0 0.11 0.062274 0 0.11 0.102274 0 0.13 0.082274 0 0.13 0.062274 0 0.11 0.082274 0 0.19 0.062274 0 0.17 0.082274 0 0.19 0.102274 0 0.15 0.102274 0 0.17 0.102274 0 0.15 0.062274 0 0.15 0.082274 0 0.17 0.062274 0 0.19 0.082274 0 0.03 0.122274 0 0.05 0.142274 0 0.05 0.122274 0 0.03 0.142274 0 0.09 0.142274 0 0.07 0.142274 0 0.07 0.122274 0 0.09 0.122274 0 0.0505399 0.162517 0 0.0330913 0.160639 0 0.034739 0.191376 0 0.048313 0.183296 0 0.0198512 0.176549 0 0.067935 0.178602 0 0.0917228 0.179864 0 0.0731193 0.161121 0 0.0931592 0.161479 0 0.13 0.142274 0 0.11 0.142274 0 0.13 0.122274 0 0.11 0.122274 0 0.19 0.142274 0 0.15 0.142274 0 0.17 0.122274 0 0.15 0.122274 0 0.19 0.122274 0 0.17 0.142274 0 0.131439 0.162709 0 0.114462 0.162347 0 0.113934 0.182344 0 0.133354 0.185381 0 0.169405 0.184565 0 0.189077 0.18246 0 0.151573 0.181166 0 0.191502 0.161734 0 0.171012 0.162919 0 0.152727 0.16069 0 0.21 0.00227401 0 0.23 0.00227401 0 0.25 0.00227401 0 0.27 0.00227401 0 0.31 0.00227401 0 0.29 0.00227401 0 0.33 0.00227401 0 0.37 0.00227401 0 0.35 0.00227401 0 0.41 0.00227401 0 0.39 0.00227401 0 0.43 0.00227401 0 0.45 0.00227401 0 0.47 0.00227401 0 0.51 0.00227401 0 0.49 0.00227401 0 0.53 0.00227401 0 0.55 0.00227401 0 0.23 0.042274 0 0.23 0.022274 0 0.21 0.022274 0 0.21 0.042274 0 0.27 0.022274 0 0.27 0.042274 0 0.25 0.042274 0 0.25 0.022274 0 0.23 0.102274 0 0.21 0.102274 0 0.23 0.082274 0 0.23 0.062274 0 0.21 0.082274 0 0.21 0.062274 0 0.27 0.082274 0 0.25 0.102274 0 0.27 0.102274 0 0.25 0.062274 0 0.27 0.062274 0 0.25 0.082274 0 0.31 0.022274 0 0.33 0.042274 0 0.31 0.042274 0 0.29 0.042274 0 0.29 0.022274 0 0.33 0.022274 0 0.35 0.042274 0 0.37 0.022274 0 0.37 0.042274 0 0.35 0.022274 0 0.33 0.082274 0 0.29 0.062274 0 0.33 0.062274 0 0.31 0.082274 0 0.33 0.102274 0 0.29 0.102274 0 0.31 0.062274 0 0.29 0.082274 0 0.31 0.102274 0 0.37 0.102274 0 0.37 0.082274 0 0.35 0.082274 0 0.35 0.102274 0 0.37 0.062274 0 0.35 0.062274 0 0.21 0.122274 0 0.23 0.122274 0 0.21 0.142274 0 0.23 0.142274 0 0.27 0.122274 0 0.25 0.142274 0 0.25 0.122274 0 0.27 0.142274 0 0.207231 0.183397 0 0.225702 0.182938 0 0.231089 0.16143 0 0.209489 0.161951 0 0.263859 0.181475 0 0.281694 0.18319 0 0.272089 0.161313 0 0.250015 0.161704 0 0.242657 0.181411 0 0.33 0.142274 0 0.31 0.142274 0 0.33 0.122274 0 0.31 0.122274 0 0.29 0.142274 0 0.29 0.122274 0 0.35 0.142274 0 0.37 0.122274 0 0.35 0.122274 0 0.37 0.142274 0 0.321276 0.182532 0 0.310962 0.161778 0 0.302387 0.182395 0 0.329426 0.162151 0 0.290199 0.162486 0 0.343166 0.181446 0 0.369909 0.161636 0 0.361515 0.182203 0 0.350103 0.161676 0 0.39 0.042274 0 0.39 0.022274 0 0.41 0.022274 0 0.41 0.042274 0 0.43 0.042274 0 0.43 0.022274 0 0.47 0.022274 0 0.45 0.022274 0 0.45 0.042274 0 0.47 0.042274 0 0.39 0.082274 0 0.39 0.062274 0 0.41 0.102274 0 0.41 0.082274 0 0.41 0.062274 0 0.39 0.102274 0 0.45 0.082274 0 0.43 0.082274 0 0.43 0.102274 0 0.47 0.102274 0 0.45 0.102274 0 0.43 0.062274 0 0.45 0.062274 0 0.47 0.062274 0 0.47 0.082274 0 0.51 0.042274 0 0.51 0.022274 0 0.49 0.022274 0 0.49 0.042274 0 0.53 0.042274 0 0.55 0.022274 0 0.53 0.022274 0 0.55 0.042274 0 0.51 0.102274 0 0.49 0.062274 0 0.51 0.082274 0 0.51 0.062274 0 0.49 0.082274 0 0.49 0.102274 0 0.55 0.102274 0 0.53 0.062274 0 0.55 0.082274 0 0.53 0.102274 0 0.55 0.062274 0 0.53 0.082274 0 0.39 0.122274 0 0.41 0.142274 0 0.41 0.122274 0 0.39 0.142274 0 0.43 0.142274 0 0.43 0.122274 0 0.47 0.142274 0 0.47 0.122274 0 0.45 0.142274 0 0.45 0.122274 0 0.38352 0.181476 0 0.389564 0.162328 0 0.401797 0.182711 0 0.410068 0.161112 0 0.422479 0.179205 0 0.451561 0.161862 0 0.430631 0.161649 0 0.462863 0.178935 0 0.443155 0.182605 0 0.49 0.142274 0 0.51 0.122274 0 0.49 0.122274 0 0.51 0.142274 0 0.55 0.142274 0 0.53 0.142274 0 0.55 0.122274 0 0.53 0.122274 0 0.492651 0.164113 0 0.484022 0.183122 0 0.501061 0.187579 0 0.509223 0.161808 0 0.472406 0.160471 0 0.551816 0.160822 0 0.531417 0.161448 0 0.539819 0.180473 0 0.560082 0.183271 0 0.51943 0.179702 0 0.00903572 0.227795 0 0.0101926 0.209586 0 0.0100778 0.24951 0 0.00817028 0.301084 0 0.00854523 0.325416 0 0.00612757 0.358813 0 0.053885 0.21494 0 0.0315365 0.208287 0 0.0515633 0.234932 0 0.0311861 0.225325 0 0.0724776 0.227014 0 0.0987665 0.19869 0 0.0865801 0.218248 0 0.0789996 0.196459 0 0.10142 0.237233 0 0.0616905 0.201776 0 0.0351966 0.262418 0 0.0504874 0.254987 0 0.0138617 0.283942 0 0.0572266 0.277106 0 0.034703 0.282732 0 0.0130692 0.267093 0 0.0286017 0.243704 0 0.07005 0.244893 0 0.0889564 0.271287 0 0.0888629 0.250523 0 0.0705892 0.267206 0 0.150314 0.202354 0 0.121312 0.201398 0 0.105482 0.217984 0 0.136382 0.213031 0 0.122503 0.227766 0 0.144357 0.233302 0 0.168733 0.207018 0 0.186199 0.202346 0 0.179789 0.22813 0 0.16169 0.225331 0 0.108287 0.255228 0 0.141675 0.281638 0 0.128885 0.245535 0 0.141832 0.261781 0 0.122064 0.267608 0 0.108474 0.280338 0 0.15676 0.248606 0 0.183228 0.266528 0 0.170952 0.284495 0 0.175787 0.248545 0 0.161174 0.270569 0 0.194715 0.248036 0 0.0335859 0.300088 0 0.0545646 0.295294 0 0.0249753 0.316355 0 0.0469198 0.320009 0 0.0791357 0.323877 0 0.093572 0.3097 0 0.062978 0.315941 0 0.0975159 0.329674 0 0.0889151 0.289499 0 0.0734167 0.296193 0 0.0455375 0.336882 0 0.0233877 0.354416 0 0.0418727 0.378077 0 0.0209489 0.374565 0 0.043348 0.358543 0 0.021348 0.336672 0 0.0941465 0.3534 0 0.0615179 0.371728 0 0.0790801 0.365704 0 0.096201 0.375294 0 0.0596709 0.34735 0 0.0764721 0.342685 0 0.111038 0.30406 0 0.139925 0.332887 0 0.131292 0.312694 0 0.125228 0.292354 0 0.149999 0.297533 0 0.119368 0.325461 0 0.186464 0.315135 0 0.165295 0.32671 0 0.193916 0.288794 0 0.173908 0.301596 0 0.154995 0.314012 0 0.112187 0.343546 0 0.133601 0.369009 0 0.113833 0.364064 0 0.132786 0.350319 0 0.157113 0.364009 0 0.154202 0.34512 0 0.175132 0.355633 0 0.180436 0.338442 0 0.194345 0.368637 0 0.175656 0.377749 0 0.00901495 0.388644 0 0.00988253 0.453423 0 0.00724443 0.425585 0 0.00961214 0.473462 0 0.00739355 0.497943 0 0.00970203 0.531404 0 0.0105969 0.551368 0 0.0474059 0.415348 0 0.0516365 0.39611 0 0.0288516 0.419644 0 0.0135717 0.406632 0 0.0309103 0.395757 0 0.070801 0.388001 0 0.0675502 0.41088 0 0.0878952 0.395619 0 0.0874559 0.414565 0 0.0552891 0.44811 0 0.0209701 0.442089 0 0.045979 0.463312 0 0.038406 0.437944 0 0.02957 0.466625 0 0.0815687 0.433019 0 0.061469 0.431105 0 0.0905704 0.470615 0 0.0705048 0.469711 0 0.0972076 0.448368 0 0.0774737 0.453152 0 0.127864 0.404983 0 0.108173 0.390216 0 0.148212 0.398649 0 0.107336 0.411154 0 0.126248 0.385245 0 0.143983 0.417313 0 0.192722 0.392024 0 0.185089 0.411977 0 0.16583 0.416012 0 0.170979 0.395163 0 0.152276 0.381497 0 0.12216 0.445918 0 0.137013 0.45756 0 0.104942 0.431636 0 0.111945 0.46406 0 0.124758 0.426605 0 0.144562 0.438063 0 0.191006 0.432099 0 0.165461 0.432576 0 0.173071 0.465087 0 0.181743 0.446061 0 0.15814 0.45326 0 0.0251504 0.487602 0 0.0342502 0.503017 0 0.0534605 0.502959 0 0.0164745 0.514411 0 0.0475709 0.482095 0 0.103543 0.483562 0 0.0670294 0.516011 0 0.0678646 0.487741 0 0.0825839 0.496645 0 0.10082 0.502227 0 0.0856748 0.517824 0 0.0567396 0.538576 0 0.0281357 0.553932 0 0.0452554 0.554465 0 0.0301612 0.530988 0 0.0449816 0.523508 0 0.0942074 0.542636 0 0.0746143 0.53654 0 0.065508 0.561132 0 0.0820445 0.558639 0 0.120586 0.517292 0 0.12459 0.477345 0 0.122773 0.499155 0 0.148487 0.473446 0 0.143648 0.510207 0 0.140799 0.491168 0 0.181891 0.498385 0 0.164506 0.484162 0 0.186404 0.47757 0 0.164346 0.504134 0 0.136608 0.529634 0 0.133285 0.547647 0 0.104505 0.525962 0 0.114243 0.543689 0 0.180754 0.523299 0 0.193219 0.555541 0 0.155041 0.563176 0 0.15316 0.543006 0 0.159994 0.522988 0 0.175684 0.561149 0 0.173702 0.541617 0 0.23254 0.227274 0 0.239022 0.206335 0 0.204976 0.206641 0 0.198089 0.224744 0 0.221508 0.204631 0 0.21392 0.232037 0 0.250852 0.224601 0 0.269982 0.222712 0 0.27521 0.203498 0 0.256139 0.200301 0 0.21526 0.287199 0 0.202675 0.271836 0 0.226246 0.267092 0 0.238551 0.281417 0 0.213512 0.252772 0 0.234006 0.246029 0 0.269166 0.261239 0 0.280829 0.281007 0 0.279676 0.245314 0 0.260155 0.242561 0 0.259112 0.277991 0 0.246842 0.25954 0 0.294608 0.203554 0 0.288469 0.225922 0 0.313018 0.201317 0 0.333844 0.201636 0 0.306504 0.223176 0 0.3184 0.241044 0 0.326713 0.221582 0 0.353984 0.200736 0 0.344385 0.220787 0 0.374599 0.238804 0 0.366069 0.220016 0 0.375357 0.201253 0 0.352616 0.239012 0 0.33138 0.264792 0 0.30105 0.246022 0 0.321687 0.285838 0 0.31147 0.26375 0 0.292246 0.266216 0 0.30359 0.284728 0 0.337795 0.246739 0 0.350344 0.267769 0 0.373492 0.279339 0 0.364782 0.257744 0 0.34003 0.286083 0 0.241757 0.315208 0 0.219591 0.319289 0 0.199777 0.328502 0 0.203804 0.305475 0 0.229137 0.301521 0 0.269101 0.332859 0 0.262337 0.315439 0 0.284755 0.319269 0 0.252244 0.296177 0 0.274426 0.299116 0 0.218704 0.339269 0 0.239073 0.33428 0 0.228805 0.377782 0 0.198486 0.349599 0 0.235042 0.354471 0 0.215978 0.360431 0
[...]
   <PointData  Vectors="vector">
    <DataArray Name="SortedParticle_ID" type="Int32" Format="ascii">
    0 1 2 3 4 5 6 7 8 9 10 11 12 13 14 15 16 17 18 19 20 21 22 23 24 25 26 27 28 29 30 31 32 33 34 35 36 37 38 39 40 41 42 43 44 45 46 47 48 49 50 51 52 53 54 55 56 57 58 59 60 61 62 63 64 65 66 67 68 69 70 71 72 73 74 75 76 77 78 79 80 81 82 83 84 85 86 87 88 89 90 91 92 93 94 95 96 97 98 99 100 101 102 103 104 105 106 107 108 109 110 111 112 113 114 115 116 117 118 119 120 121 122 123 124 125 126 127 128 129 130 131 132 133 134 135 136 137 138 139 140 141 142 143 144 145 146 147 148 149 150 151 152 153 154 155 156 157 158 159 160 161 162 163 164 165 166 167 168 169 170 171 172 173 174 175 176 177 178 179 180 181 182 183 184 185 186 187 188 189 190 191 192 193 194 195 196 197 198 199 200 201 202 203 204 205 206 207 208 209 210 211 212 213 214 215 216 217 218 219 220 221 222 223 224 225 226 227 228 229 230 231 232 233 234 235 236 237 238 239 240 241 242 243 244 245 246 247 248 249 250 251 252 253 254 255 256 257 258 259 260 261 262 263 264 265 266 267 268 269 270 271 272 273 274 275 276 277 278 279 280 281 282 283 284 285 286 287 288 289 290 291 292 293 294 295 296 297 298 299 300 301 302 303 304 305 306 307 308 309 310 311 312 313 314 315 316 317 318 319 320 321 322 323 324 325 326 327 328 329 330 331 332 333 334 335 336 337 338 339 340 341 342 343 344 345 346 347 348 349 350 351 352 353 354 355 356 357 358 359 360 361 362 363 364 365 366 367 368 369 370 371 372 373 374 375 376 377 378 379 380 381 382 383 384 385 386 387 388 389 390 391 392 393 394 395 396 397 398 399 400 401 402 403 404 405 406 407 408 409 410 411 412 413 414 415 416 417 418 419 420 421 422 423 424 425 426 427 428 429 430 431 432 433 434 435 436 437 438 439 440 441 442 443 444 445 446 447 448 449 450 451 452 453 454 455 456 457 458 459 460 461 462 463 464 465 466 467 468 469 470 471 472 473 474 475 476 477 478 479 480 481 482 483 484 485 486 487 488 489 490 491 492 493 494 495 496 497 498 499 500 501 502 503 504 505 506 507 508 509 510 511 512 513 514 515 516 517 518 519 520 521 522 523 524 525 526 527 528 529 530 531 532 533 534 535 536 537 538 539 540 541 542 543 544 545 546 547 548 549 550 551 552 553 554 555 556 557 558 559 560 561 562 563 564 565 566 567 568 569 570 571 572 573 574 575 576 577 578 579 580 581 582 583 584 585 586 587 588 589 590 591 592 593 594 595 596 597 598 599 600 601 602 603 604 605 606 607 608 609 610 611 612 613 614 615 616 617 618 619 620 621 622 623 624 625 626 627 628 629 630 631 632 633 634 635 636 637 638 639 640 641 642 643 644 645 646 647 648 649 650 651 652 653 654 655 656 657 658 659 660 661 662 663 664 665 666 667 668 669 670 671 672 673 674 675 676 677 678 679 680 681 682 683 684 685 686 687 688 689 690 691 692 693 694 695 696 697 698 699 700 701 702 703 704 705 706 707 708 709 710 711 712 713 714 715 716 717 718 719 720 721 722 723 724 725 726 727 728 729 730 731 732 733 734 735 736 737 738 739 740 741 742 743 744 745 746 747 748 749 750 751 752 753 754 755 756 757 758 759 760 761 762 763 764 765 766 767 768 769 770 771 772 773 774 775 776 777 778 779 780 781 782 783 784 785 786 787 788 789 790 791 792 793 794 795 796 797 798 799 800 801 802 803 804 805 806 807 808 809 810 811 812 813 814 815 816 817 818 819 820 821 822 823 824 825 826 827 828 829 830 831 832 833 834 835 836 837 838 839 840 841 842 843 844 845 846 847 848 849 850 851 852 853 854 855 856 857 858 859 860 861 862 863 864 865 866 867 868 869 870 871 872 873 874 875 876 877 878 879 880 881 882 883 884 885 886 887 888 889 890 891 892 893 894 895 896 897 898 899 900 901 902 903 904 905 906 907 908 909 910 911 912 913 914 915 916 917 918 919 920 921 922 923 924 925 926 927 928 929 930 931 932 933 934 935 936 937 938 939 940 941 942 943 944 945 946 947 948 949 950 951 952 953 954 955 956 957 958 959 960 961 962 963 964 965 966 967 968 969 970 971 972 973 974 975 976 977 978 979 980 981 982 983 984 985 986 987 988 989 990 991 992 993 994 995 996 997 998 999 1000 1001 1002 1003 1004 1005 1006 1007 1008 1009 1010 1011 1012 1013 1014 1015 1016 1017 1018 1019 1020 1021 1022 1023 1024 1025 1026 1027 1028 1029 1030 1031 1032 1033 1034 1035 1036 1037 1038 1039 1040 1041 1042 1043 1044 1045 1046 1047 1048 1049 1050 1051 1052 1053 1054 1055 1056 1057 1058 1059 1060 1061 1062 1063 1064 1065 1066 1067 1068 1069 1070 1071 1072 1073 1074 1075 1076 1077 1078 1079 1080 1081 1082 1083 1084 1085 1086 1087 1088 1089 1090 1091 1092 1093 1094 1095 1096 1097 1098 1099 1100 1101 1102 1103 1104 1105 1106 1107 1108 1109 1110 1111 1112 1113 1114 1115 1116 1117 1118 1119 1120 1121 1122 1123 1124 1125 1126 1127 1128 1129 1130 1131 1132 1133 1134 1135 1136 1137 1138 1139 1140 1141 1142 1143 1144 1145 1146 1147 1148 1149 1150 1151 1152 1153 1154 1155 1156 1157 1158 1159 1160 1161 1162 1163 1164 1165 1166 1167 1168 1169 1170 1171 1172 1173 1174 1175 1176 1177 1178 1179 1180 1181 1182 1183 1184 1185 1186 1187 1188 1189 1190 1191 1192 1193 1194 1195 1196 1197 1198 1199 1200 1201 1202 1203 1204 1205 1206 1207 1208 1209 1210 1211 1212 1213 1214 1215 1216 1217 1218 1219 1220 1221 1222 1223 1224 1225 1226 1227 1228 1229 1230 1231 1232 1233 1234 1235 1236 1237 1238 1239 1240 1241 1242 1243 1244 1245 1246 1247 1248 1249 1250 1251 1252 1253 1254 1255 1256 1257 1258 1259 1260 1261 1262 1263 1264 1265 1266 1267 1268 1269 1270 1271 1272 1273 1274 1275 1276 1277 1278 1279 1280 1281 1282 1283 1284 1285 1286 1287 1288 1289 1290 1291 1292 1293 1294 1295 1296 1297 1298 1299 1300 1301 1302 1303 1304 1305 1306 1307 1308 1309 1310 1311 1312 1313 1314 1315 1316 1317 1318 1319 1320 1321 1322 1323 1324 1325 1326 1327 1328 1329 1330 1331 1332 1333 1334 1335 1336 1337 1338 1339 1340 1341 1342 1343 1344 1345 1346 1347 1348 1349 1350 1351 1352 1353 1354 1355 1356 1357 1358 1359 1360 1361 1362 1363 1364 1365 1366 1367 1368 1369 1370 1371 1372 1373 1374 1375 1376 1377 1378 1379 1380 1381 1382 1383 1384 1385 1386 1387 1388 1389 1390 1391 1392 1393 1394 1395 1396 1397 1398 1399 1400 1401 1402 1403 1404 1405 1406 1407 1408 1409 1410 1411 1412 1413 1414 1415 1416 1417 1418 1419 1420 1421 1422 1423 1424 1425 1426 1427 1428 1429 1430 1431 1432 1433 1434 1435 1436 1437 1438 1439 1440 1441 1442 1443 1444 1445 1446 1447 1448 1449 1450 1451 1452 1453 1454 1455 1456 1457 1458 1459 1460 1461 1462 1463 1464 1465 1466 1467 1468 1469 1470 1471 1472 1473 1474 1475 1476 1477 1478 1479 1480 1481 1482 1483 1484 1485 1486 1487 1488 1489 1490 1491 1492 1493 1494 1495 1496 1497 1498 1499 1500 1501 1502 1503 1504 1505 1506 1507 1508 1509 1510 1511 1512 1513 1514 1515 1516 1517 1518 1519 1520 1521 1522 1523 1524 1525 1526 1527 1528 1529 1530 1531 1532 1533 1534 1535 1536 1537 1538 1539 1540 1541 1542 1543 1544 1545 1546 1547 1548 1549 1550 1551 1552 1553 1554 1555 1556 1557 1558 1559 1560 1561 1562 1563 1564 1565 1566 1567 1568 1569 1570 1571 1572 1573 1574 1575 1576 1577 1578 1579 1580 1581 1582 1583 1584 1585 1586 1587 1588 1589 1590 1591 1592 1593 1594 1595 1596 1597 1598 1599 1600 1601 1602 1603 1604 1605 1606 1607 1608 1609 1610 1611 1612 1613 1614 1615 1616 1617 1618 1619 1620 1621 1622 1623 1624 1625 1626 1627 1628 1629 1630 1631 1632 1633 1634 1635 1636 1637 1638 1639 1640 1641 1642 1643 1644 1645 1646 1647 1648 1649 1650 1651 1652 1653 1654 1655 1656 1657 1658 1659 1660 1661 1662 1663 1664 1665 1666 1667 1668 1669 1670 1671 1672 1673 1674 1675 1676 1677 1678 1679 1680 1681 1682 1683 1684 1685 1686 1687 1688 1689 1690 1691 1692 1693 1694 1695 1696 1697 1698 1699 1700 1701 1702 1703 1704 1705 1706 1707 1708 1709 1710 1711 1712 1713 1714 1715 1716 1717 1718 1719 1720 1721 1722 1723 1724 1725 1726 1727 1728 1729 1730 1731 1732 1733 1734 1735 1736 1737 1738 1739 1740 1741 1742 1743 1744 1745 1746 1747 1748 1749 1750 1751 1752 1753 1754 1755 1756 1757 1758 1759 1760 1761 1762 1763 1764 1765 1766 1767 1768 1769 1770 1771 1772 1773 1774 1775 1776 1777 1778 1779 1780 1781 1782 1783 1784 1785 1786 1787 1788 1789 1790 1791 1792 1793 1794 1795 1796 1797 1798 1799 1800 1801 1802 1803 1804 1805 1806 1807 1808 1809 1810 1811 1812 1813 1814 1815 1816 1817 1818 1819 1820 1821 1822 1823 1824 1825 1826 1827 1828 1829 1830 1831 1832 1833 1834 1835 1836 1837 1838 1839 1840 1841 1842 1843 1844 1845 1846 1847 1848 1849 1850 1851 1852 1853 1854 1855 1856 1857 1858 1859 1860 1861 1862 1863 1864 1865 1866 1867 1868 1869 1870 1871 1872 1873 1874 1875 1876 1877 1878 1879 1880 1881 1882 1883 1884 1885 1886 1887 1888 1889 1890 1891 1892 1893 1894 1895 1896 1897 1898 1899 1900 1901 1902 1903 1904 1905 1906 1907 1908 1909 1910 1911 1912 1913 1914 1915 1916 1917 1918 1919 1920 1921 1922 1923 1924 1925 1926 1927 1928 1929 1930 1931 1932 1933 1934 1935 1936 1937 1938 1939 1940 1941 1942 1943 1944 1945 1946 1947 1948 1949 1950 1951 1952 1953 1954 1955 1956 1957 1958 1959 1960 1961 1962 1963 1964 1965 1966 1967 1968 1969 1970 1971 1972 1973 1974 1975 1976 1977 1978 1979 1980 1981 1982 1983 1984 1985 1986 1987 1988 1989 1990 1991 1992 1993 1994 1995 1996 1997 1998 1999 2000 2001 2002 2003 2004 2005 2006 2007 2008 2009 2010 2011 2012 2013 2014 2015 2016 2017 2018 2019 2020 2021 2022 2023 2024 2025 2026 2027 2028 2029 2030 2031 2032 2033 2034 2035 2036 2037 2038 2039 2040 2041 2042 2043 2044 2045 2046 2047 2048 2049 2050 2051 2052 2053 2054 2055 2056 2057 2058 2059 2060 2061 2062 2063 2064 2065 2066 2067 2068 2069 2070 2071 2072 2073 2074 2075 2076 2077 2078 2079 2080 2081 2082 2083 2084 2085 2086 2087 2088 2089 2090 2091 2092 2093 2094 2095 2096 2097 2098 2099 2100 2101 2102 2103 2104 2105 2106 2107 2108 2109 2110 2111 2112 2113 2114 2115 2116 2117 2118 2119 2120 2121 2122 2123 2124 2125 2126 2127 2128 2129 2130 2131 2132 2133 2134 2135 2136 2137 2138 2139 2140 2141 2142 2143 2144 2145 2146 2147 2148 2149 2150 2151 2152 2153 2154 2155 2156 2157 2158 2159 2160 2161 2162 2163 2164 2165 2166 2167 2168 2169 2170 2171 2172 2173 2174 2175 2176 2177 2178 2179 2180 2181 2182 2183 
    </DataArray>
    <DataArray Name="OriginalID" type="Int32" Format="ascii">
    6 78 42 150 114 222 186 330 258 294 7 0 3 2 1 4 5 174 1854 72 79 36 43 151 108 144 115 38 37 73 75 74 39 146 110 111 145 147 109 216 223 180 187 259 331 295 252 288 324 219 181 183 218 217 182 325 290 327 255 291 253 254 289 326 40 77 76 41 149 113 112 148 2166 2164 71 2137 2125 2089 2136 2179 2158 221 185 220 184 329 257 292 256 328 293 2157 2171 2145 2135 2131 2142 2150 2155 2159 2170 366 402 438 474 546 510 582 654 618 726 690 762 798 834 906 870 942 978 396 403 367 360 475 468 432 439 399 363 398 397 362 361 470 435 471 433 469 434 547 576 540 504 511 583 612 655 648 619 578 505 577 542 579 507 541 506 543 651 650 614 615 649 613 364 400 365 401 472 437 436 473 2147 2129 2177 2160 2126 2139 2174 1857 2141 581 545 580 544 509 508 617 652 616 653 2152 2182 2149 1856 2161 2128 2169 2148 2180 684 691 727 720 756 763 835 799 792 828 686 685 723 722 721 687 794 758 759 831 795 757 793 829 830 900 907 871 864 936 979 943 972 903 865 902 901 866 867 975 937 974 939 973 938 688 725 724 689 761 760 833 832 797 796 2130 2181 2132 2156 2124 2165 2172 2140 2134 869 904 868 905 977 941 976 940 1852 2151 2144 2168 2176 2178 2167 2143 2123 2127 207 247 208 199 241 205 142 143 162 211 140 141 178 100 125 213 169 179 175 197 249 170 206 123 104 159 176 2091 2090 101 2058 164 139 2119 2101 2059 2106 127 161 166 173 95 86 135 35 132 165 163 2074 177 212 136 122 60 160 21 25 195 85 99 172 196 107 120 231 56 20 26 27 47 51 126 98 96 129 130 70 68 89 106 134 102 53 54 52 87 124 133 128 67 65 90 240 281 242 239 248 278 313 232 131 167 243 168 50 158 55 49 157 171 198 236 202 48 119 84 121 83 155 61 58 32 18 91 9 64 92 88 69 94 23 15 16 17 97 59 34 63 29 62 57 234 204 271 276 235 12 194 156 81 46 118 303 138 200 137 272 229 82 268 267 44 1902 8 24 117 14 1905 19 31 10 116 228 153 154 1861 80 337 189 45 191 1872 2100 2113 2133 2103 2116 2104 2070 2085 2114 2099 2060 105 2075 2026 2057 2073 2028 2000 2069 2082 2048 2029 2097 2083 2109 2098 2068 2035 2081 2111 2072 2030 2084 2096 2047 2016 2032 2010 2044 2055 2014 2006 2004 1978 2020 1961 2027 2025 103 93 33 1995 2005 2046 2038 1982 1958 2054 22 2056 2023 30 1940 1993 2024 2050 1962 1996 1976 1960 2007 1926 1973 1959 1988 1974 2015 1979 1932 1975 1957 1945 1941 1896 1925 1931 2021 2064 2095 2112 2066 2065 2093 2063 2036 2080 2108 2107 2019 2009 2031 2011 2022 2043 2040 2037 2039 2067 2078 2094 2092 2115 2071 2122 1137 2110 2118 2102 2105 2087 2079 2061 2034 2041 2076 2051 2088 2086 1134 1060 2062 1023 1981 1955 1968 1956 1970 1999 2003 2012 2008 1997 2001 2049 1952 1946 1893 1894 1989 1911 2013 1969 1984 2077 2042 2018 2033 2045 1093 1167 1061 1096 1175 1099 2017 1173 1172 1100 1132 1136 1138 2052 1133 1971 1992 66 1998 28 1985 1937 1990 1991 1966 11 1933 2002 1964 1977 1953 1943 1963 1954 1904 1994 1930 1927 1944 1965 1947 1898 1909 1880 1916 1917 1897 1920 1899 1929 1928 1919 1862 1865 1876 1879 1869 13 1871 1921 1870 1924 1910 1906 1935 224 188 1868 262 1873 225 1900 1890 298 299 332 152 261 296 334 1901 1867 1918 1942 404 548 1863 260 369 370 368 445 371 407 335 336 297 406 481 333 443 444 1889 1908 1895 1887 1860 1912 1881 1980 1859 1907 1877 1891 549 1866 1864 1878 656 584 728 620 692 585 621 1972 1131 1987 1967 1948 1174 1986 1129 1950 1983 1922 1936 1892 1938 1913 764 800 1882 1161 1951 1949 1934 1874 1915 476 512 440 513 550 514 622 658 551 442 405 479 441 515 552 588 477 478 587 516 729 660 657 694 836 586 659 765 908 1858 693 625 623 624 697 872 661 696 695 1050 1014 1158 1086 1122 1015 1008 1044 1051 1116 1080 1159 1087 1152 1123 1011 1047 1009 1045 1046 1010 1154 1155 1082 1083 1119 1118 1117 1081 1153 1049 1048 1013 1012 1157 1120 1084 1085 1121 1156 2146 2138 2183 2162 2153 2163 2154 2175 2173 2121 2120 948 2117 988 984 1176 911 1059 947 2053 986 875 1020 1021 1091 1019 983 982 1128 912 874 1054 1164 985 1057 1056 1098 1025 1092 1126 1055 1058 1127 1171 1095 1097 1168 1170 1135 1088 946 1166 1089 1169 1163 1130 1939 1094 1165 1888 1875 1124 1090 877 1125 1162 1923 1914 1018 876 1052 1885 1160 839 944 1884 980 1903 766 1883 873 1016 1053 910 945 1886 949 730 768 731 733 732 767 909 1017 801 802 803 841 878 1022 804 840 837 805 981 951 842 914 843 913 950 1140 1102 987 1106 1104 989 1024 953 1063 1139 1101 1068 1062 1103 1142 1105 1141 1177 1179 1190 1067 1033 1030 1065 1032 1035 1070 1069 1143 1178 1189 1199 1221 1144 1107 1201 1200 1108 1188 1232 1210 1222 1233 1265 1243 1309 1298 1276 1254 1234 1255 1223 1288 1277 1244 1256 1287 1320 1353 1342 1375 1365 1299 1278 1290 1311 1331 1289 1302 1310 1312 1301 1321 1300 1408 1386 1376 1419 1441 1322 1313 1397 1323 1364 1367 1354 1355 1343 1366 244 210 246 245 214 203 283 209 275 237 266 201 269 265 230 238 311 277 280 317 307 309 274 233 270 273 192 304 302 193 338 301 339 374 413 373 306 342 305 340 343 376 380 341 377 378 450 321 285 319 353 250 348 310 279 282 315 312 215 320 318 284 286 287 351 349 355 316 352 308 347 382 346 344 345 381 418 416 420 384 314 350 385 387 421 425 386 383 388 322 323 251 359 357 354 356 358 391 395 263 375 227 190 226 300 372 409 264 412 447 414 487 415 449 454 448 485 486 451 452 410 483 408 523 411 519 446 521 484 524 490 489 563 491 488 559 526 525 561 379 419 457 456 417 493 455 453 492 494 527 458 392 422 424 423 459 495 393 390 426 531 462 496 463 529 530 528 497 565 532 499 427 501 461 465 429 460 464 498 536 537 500 482 480 557 555 518 595 517 556 593 553 596 560 520 562 522 597 599 634 598 558 633 632 592 589 626 590 591 554 662 627 700 663 698 669 630 631 594 667 668 706 629 703 666 569 566 601 564 602 600 635 572 637 605 567 570 571 533 573 535 534 608 609 604 606 671 603 636 670 568 672 707 741 705 709 673 607 639 675 638 643 640 713 676 677 641 642 389 394 431 430 467 428 466 502 503 538 539 610 575 574 611 645 647 734 628 806 737 699 664 772 770 736 838 771 704 701 702 665 740 773 738 744 739 775 807 774 735 808 809 769 845 844 812 879 776 778 779 811 814 815 816 810 851 813 849 743 742 745 708 674 712 710 781 711 746 751 716 715 678 714 644 679 680 717 681 782 780 747 750 777 858 784 786 785 817 790 748 783 749 753 752 789 787 824 823 788 860 952 990 916 915 880 917 918 919 882 1028 885 881 819 850 847 848 854 846 991 920 884 883 1064 997 1027 993 1029 1066 1031 995 994 996 1034 957 992 954 1026 958 998 963 961 999 964 818 820 889 821 822 887 852 886 955 888 825 856 857 859 853 893 890 895 855 922 956 921 923 892 1003 960 926 924 959 896 897 928 927 925 1001 931 929 930 966 683 646 718 719 682 755 754 826 791 827 863 861 894 891 899 862 1180 1181 1071 1202 962 1203 1191 1211 1225 1212 1213 1214 1224 1206 1145 1204 1193 1192 1205 1186 1195 1245 1207 1235 1236 1196 1247 1267 1226 1257 1258 1246 1041 1077 1149 1115 1074 1231 1227 1006 1209 1220 1000 1036 1109 1072 1037 1002 1194 1198 1182 1185 1113 1147 1183 898 965 1004 932 969 967 1184 968 1187 1073 1146 1079 1208 1114 1111 1112 1075 1076 1218 1228 1242 1039 1148 1150 1040 1042 1038 1110 1151 1007 970 1272 1266 1279 1268 1291 1259 1292 1303 1281 1270 1269 1216 1215 1280 1261 1217 1283 1271 1294 1260 1295 1282 1324 1273 1293 1334 1335 1333 1336 1345 1332 1304 1297 1308 1248 1264 1275 1307 1362 1319 1286 1306 1043 1197 1230 1250 1239 1274 1284 1229 1249 1219 1237 1251 1374 1238 1240 1285 1350 1262 1383 1328 1373 1361 1263 1318 1241 1363 1252 1352 1317 1330 1296 1341 1384 1340 1338 1347 1339 1329 1348 1326 1351 935 1005 933 1078 971 934 1253 1395 1385 1359 1396 1372 1474 1452 1485 1464 1486 1430 1463 1377 1388 1387 1442 1431 1432 1409 1420 1475 1496 1497 1519 1507 1444 1453 1434 1443 1455 1488 1454 1487 1465 1476 1540 1518 1509 1562 1552 1498 1508 1522 1521 1541 1529 1510 1530 1584 1595 1617 1651 1639 1729 1606 1607 1650 1662 1661 1717 1718 1728 1694 1738 1608 1609 1631 1610 1629 1641 1683 1621 1707 1744 1754 1798 1763 1746 1771 1765 1757 1755 1846 1836 1766 1767 1726 1747 1344 1399 1378 1368 1400 1401 1412 1410 1398 1346 1337 1356 1369 1389 1411 1402 1379 1423 1435 1421 1422 1445 1424 1433 1446 1457 1470 1456 1467 1466 1447 1438 1450 1448 1417 1458 1439 1461 1382 1462 1473 1380 1325 1305 1357 1315 1314 1427 1406 1436 1414 1413 1349 1358 1327 1370 1390 1316 1437 1391 1425 1426 1392 1405 1418 1393 1440 1506 1495 1484 1505 1429 1494 1416 1404 1394 1403 1415 1517 1515 1527 1516 1489 1499 1490 1477 1478 1543 1531 1511 1554 1542 1479 1492 1428 1481 1468 1459 1469 1501 1502 1512 1574 1551 1563 1672 1585 1573 1618 1575 1596 1597 1619 1532 1520 1553 1500 1544 1564 1587 1565 1586 1576 1598 1472 1480 1460 1483 1451 1482 1525 1493 1513 1503 1524 1526 1491 1538 1471 1549 1504 1449 1559 1557 1514 1548 1569 1537 1534 1523 1545 1556 1533 1546 1613 1600 1588 1555 1547 1580 1535 1536 1566 1589 1567 1578 1568 1577 1381 1371 1360 1407 1528 1539 1560 1550 1558 1571 1579 1561 1620 1630 1633 1622 1628 1632 1640 1727 1642 1653 1663 1623 1670 1599 1624 1634 1673 1643 1659 1647 1616 1654 1719 1696 1749 1787 1817 1706 1830 1652 1819 1655 1684 1685 1843 1778 1760 1709 1741 1625 1611 1601 1648 1635 1627 1594 1638 1592 1593 1604 1605 1615 1614 1590 1612 1637 1626 1603 1679 1602 1649 1692 1681 1636 1646 1730 1665 1716 1695 1811 1644 1658 1583 1680 1657 1645 1656 1703 1669 1668 1795 1752 1851 1845 1708 1831 1803 1810 1780 1823 1751 1676 1687 1697 1674 1700 1824 1686 1848 1820 1688 1666 1675 1664 1667 1699 1721 1712 1705 1797 1806 1779 1844 1812 1829 1731 1711 1732 1690 1713 1796 1702 1818 1804 1720 1742 1710 1570 1582 1591 1572 1581 1691 1660 1678 1701 1689 1677 1671 1714 1839 1834 1769 1722 1682 1734 1698 1725 1740 1825 1693 1756 1743 1759 1847 1805 1739 1723 1838 1770 1788 1761 1750 1745 1735 1733 1704 1842 1753 1724 1762 1790 1736 1715 1789 1835 1850 1782 1781 1737 1764 1791 1849 1853 1775 1748 1776 1783 1758 1774 1813 1832 1841 1768 1773 1792 1855 1772 1793 1833 1826 1808 1777 1784 1785 1801 1786 1800 1814 1837 1799 1821 1840 1794 1807 1802 1828 1827 1815 1816 1809 1822 
    </DataArray>
    <DataArray Name="Density" type="Float32" Format="ascii">