<?xml version="1.0"?>
<VTKFile type="PolyData" version="0.1" byte_order="LittleEndian">
 <PolyData>
  <Piece Name ="WaterBlock" NumberOfPoints="2042" NumberOfVerts="2042">
   <Points>
    <DataArray Name="Position" type="Float32"  NumberOfComponents="3" Format="ascii">
    0.01 0.0393808 0 0.01 0.0193808 0 0.01 0.0593808 0 0.01 0.0993808 0 0.01 0.0793808 0 0.01 0.119381 0 0.01 0.139381 0 0.00999476 0.194204 0 0.01 0.159381 0 0.05 0.0393808 0 0.03 0.0393808 0 0.03 0.0193808 0 0.05 0.0193808 0 0.07 0.0193808 0 0.09 0.0393808 0 0.09 0.0193808 0 0.07 0.0393808 0 0.05 0.0993808 0 0.05 0.0593808 0 0.03 0.0593808 0 0.03 0.0793808 0 0.03 0.0993808 0 0.05 0.0793808 0 0.07 0.0993808 0 0.07 0.0593808 0 0.09 0.0593808 0 0.09 0.0793808 0 0.09 0.0993808 0 0.07 0.0793808 0 0.11 0.0193808 0 0.13 0.0393808 0 0.11 0.0393808 0 0.13 0.0193808 0 0.17 0.0193808 0 0.15 0.0193808 0 0.19 0.0193808 0 0.17 0.0393808 0 0.15 0.0393808 0 0.19 0.0393808 0 0.13 0.0993808 0 0.13 0.0593808 0 0.11 0.0793808 0 0.11 0.0593808 0 0.11 0.0993808 0 0.13 0.0793808 0 0.19 0.0793808 0 0.17 0.0593808 0 0.15 0.0593808 0 0.19 0.0593808 0 0.15 0.0993808 0 0.15 0.0793808 0 0.17 0.0993808 0 0.19 0.0993808 0 0.17 0.0793808 0 0.03 0.119381 0 0.05 0.119381 0 0.03 0.139381 0 0.05 0.139381 0 0.07 0.139381 0 0.09 0.119381 0 0.07 0.119381 0 0.09 0.139381 0 0.0140867 0.176336 0 0.030531 0.189354 0 0.0575816 0.189233 0 0.043263 0.176868 0 0.03 0.159381 0 0.05 0.159381 0 0.0952903 0.178203 0 0.09 0.159381 0 0.0885434 0.192301 0 0.071278 0.177164 0 0.07 0.159381 0 0.11 0.139381 0 0.13 0.139381 0 0.11 0.119381 0 0.13 0.119381 0 0.19 0.139381 0 0.17 0.119381 0 0.15 0.119381 0 0.19 0.119381 0 0.17 0.139381 0 0.15 0.139381 0 0.114719 0.193773 0 0.119191 0.17692 0 0.136595 0.190876 0 0.14613 0.177343 0 0.11 0.159381 0 0.13 0.159381 0 0.19 0.159381 0 0.18386 0.178907 0 0.166225 0.180885 0 0.15 0.159381 0 0.17 0.159381 0 0.21 0.0193808 0 0.23 0.0393808 0 0.21 0.0393808 0 0.23 0.0193808 0 0.25 0.0393808 0 0.27 0.0393808 0 0.25 0.0193808 0 0.27 0.0193808 0 0.23 0.0593808 0 0.21 0.0593808 0 0.23 0.0993808 0 0.21 0.0793808 0 0.21 0.0993808 0 0.23 0.0793808 0 0.25 0.0593808 0 0.25 0.0993808 0 0.27 0.0993808 0 0.25 0.0793808 0 0.27 0.0793808 0 0.27 0.0593808 0 0.33 0.0393808 0 0.29 0.0393808 0 0.31 0.0193808 0 0.33 0.0193808 0 0.29 0.0193808 0 0.31 0.0393808 0 0.35 0.0393808 0 0.37 0.0193808 0 0.37 0.0393808 0 0.35 0.0193808 0 0.33 0.0593808 0 0.29 0.0593808 0 0.33 0.0993808 0 0.31 0.0793808 0 0.31 0.0993808 0 0.29 0.0793808 0 0.33 0.0793808 0 0.29 0.0993808 0 0.31 0.0593808 0 0.35 0.0593808 0 0.37 0.0993808 0 0.35 0.0993808 0 0.37 0.0793808 0 0.35 0.0793808 0 0.37 0.0593808 0 0.23 0.139381 0 0.21 0.139381 0 0.21 0.119381 0 0.23 0.119381 0 0.25 0.119381 0 0.27 0.139381 0 0.25 0.139381 0 0.27 0.119381 0 0.23 0.159381 0 0.238933 0.19608 0 0.204084 0.178207 0 0.21 0.159381 0 0.216168 0.195257 0 0.226844 0.178205 0 0.272479 0.176974 0 0.27 0.159381 0 0.25 0.159381 0 0.248323 0.177944 0 0.264214 0.193505 0 0.287795 0.192952 0 0.33 0.139381 0 0.33 0.119381 0 0.29 0.139381 0 0.29 0.119381 0 0.31 0.119381 0 0.31 0.139381 0 0.37 0.139381 0 0.35 0.139381 0 0.35 0.119381 0 0.37 0.119381 0 0.31 0.159381 0 0.319757 0.178843 0 0.33 0.159381 0 0.298036 0.177389 0 0.29 0.159381 0 0.339289 0.179377 0 0.356962 0.180296 0 0.35 0.159381 0 0.377234 0.177381 0 0.37 0.159381 0 0.39 0.0393808 0 0.41 0.0193808 0 0.39 0.0193808 0 0.41 0.0393808 0 0.47 0.0193808 0 0.43 0.0193808 0 0.47 0.0393808 0 0.43 0.0393808 0 0.45 0.0393808 0 0.45 0.0193808 0 0.41 0.0993808 0 0.39 0.0593808 0 0.41 0.0593808 0 0.39 0.0793808 0 0.39 0.0993808 0 0.41 0.0793808 0 0.47 0.0593808 0 0.43 0.0593808 0 0.45 0.0593808 0 0.45 0.0793808 0 0.43 0.0993808 0 0.45 0.0993808 0 0.47 0.0993808 0 0.43 0.0793808 0 0.47 0.0793808 0 0.49 0.0393808 0 0.51 0.0193808 0 0.49 0.0193808 0 0.51 0.0393808 0 0.55 0.0393808 0 0.53 0.0393808 0 0.53 0.0193808 0 0.55 0.0193808 0 0.51 0.0593808 0 0.49 0.0593808 0 0.49 0.0993808 0 0.51 0.0793808 0 0.51 0.0993808 0 0.49 0.0793808 0 0.53 0.0593808 0 0.55 0.0593808 0 0.55 0.0793808 0 0.53 0.0993808 0 0.55 0.0993808 0 0.53 0.0793808 0 0.41 0.139381 0 0.41 0.119381 0 0.39 0.139381 0 0.39 0.119381 0 0.47 0.119381 0 0.45 0.139381 0 0.43 0.119381 0 0.43 0.139381 0 0.47 0.139381 0 0.45 0.119381 0 0.39 0.159381 0 0.419332 0.179833 0 0.388062 0.194369 0 0.400033 0.178807 0 0.41 0.159381 0 0.458974 0.179813 0 0.438701 0.178205 0 0.45 0.159381 0 0.43 0.159381 0 0.47 0.159381 0 0.51 0.119381 0 0.49 0.139381 0 0.51 0.139381 0 0.49 0.119381 0 0.53 0.139381 0 0.53 0.119381 0 0.55 0.119381 0 0.55 0.139381 0 0.49 0.159381 0 0.497936 0.177606 0 0.47646 0.180067 0 0.51 0.159381 0 0.51546 0.182258 0 0.53 0.159381 0 0.550063 0.189906 0 0.563391 0.177387 0 0.55 0.159381 0 0.534723 0.176543 0 0.010367 0.230995 0 0.00752048 0.260674 0 0.00670703 0.335335 0 0.00926191 0.373976 0 0.0299692 0.210104 0 0.035594 0.237261 0 0.0124222 0.213889 0 0.0460471 0.225388 0 0.0488611 0.207766 0 0.0703061 0.204521 0 0.0961588 0.230377 0 0.0693693 0.236411 0 0.0932812 0.210229 0 0.0731072 0.221607 0 0.0460035 0.283686 0 0.0262204 0.271434 0 0.0190161 0.245669 0 0.0122648 0.282218 0 0.0393588 0.259178 0 0.0558068 0.249189 0 0.0960455 0.245941 0 0.0581698 0.27042 0 0.0770828 0.254883 0 0.0785733 0.273927 0 0.0982707 0.266698 0 0.100279 0.284944 0 0.145916 0.226752 0 0.112018 0.213025 0 0.130963 0.211491 0 0.134414 0.240944 0 0.118476 0.232802 0 0.165453 0.199252 0 0.150621 0.208046 0 0.171013 0.223494 0 0.162653 0.238887 0 0.195035 0.19856 0 0.187726 0.234231 0 0.183002 0.208287 0 0.116011 0.253666 0 0.137703 0.26078 0 0.120372 0.273281 0 0.135426 0.282995 0 0.156469 0.256169 0 0.174252 0.283486 0 0.187679 0.26843 0 0.157114 0.274558 0 0.17744 0.255242 0 0.0154532 0.298614 0 0.0126179 0.314147 0 0.0259426 0.330116 0 0.0551214 0.321017 0 0.0369739 0.296472 0 0.0373367 0.315792 0 0.0939203 0.30315 0 0.0693545 0.33229 0 0.0788037 0.313778 0 0.0609197 0.301865 0 0.0733695 0.290834 0 0.101747 0.321435 0 0.0128328 0.355332 0 0.0334236 0.373392 0 0.0498133 0.375616 0 0.0564127 0.351314 0 0.0438005 0.341295 0 0.0298471 0.354503 0 0.0862704 0.365041 0 0.0933913 0.335323 0 0.0661549 0.368445 0 0.0794966 0.348234 0 0.142222 0.3224 0 0.133735 0.302268 0 0.114487 0.297053 0 0.121408 0.318413 0 0.195661 0.319061 0 0.191515 0.290891 0 0.158251 0.311226 0 0.173459 0.324535 0 0.15481 0.293898 0 0.179319 0.305778 0 0.10887 0.349774 0 0.138334 0.367454 0 0.108382 0.364469 0 0.123074 0.337087 0 0.13549 0.350792 0 0.122368 0.379013 0 0.15797 0.359287 0 0.19267 0.339411 0 0.176234 0.362143 0 0.151023 0.337578 0 0.171067 0.342238 0 0.190917 0.372733 0 0.00767897 0.411835 0 0.0110807 0.433162 0 0.00822323 0.468431 0 0.0102596 0.514052 0 0.00838023 0.493321 0 0.0086751 0.551889 0 0.0276041 0.415915 0 0.0484532 0.39903 0 0.0491127 0.416658 0 0.0124041 0.391833 0 0.0302144 0.393846 0 0.0765806 0.409115 0 0.0821145 0.385075 0 0.101914 0.38422 0 0.0907108 0.421566 0 0.0662 0.393747 0 0.0995868 0.402071 0 0.0437669 0.452691 0 0.0126389 0.451453 0 0.0316028 0.461685 0 0.0523779 0.434977 0 0.030263 0.433999 0 0.0701756 0.427039 0 0.0943625 0.464947 0 0.0631505 0.458701 0 0.0753159 0.446118 0 0.0937826 0.446457 0 0.130652 0.394343 0 0.115651 0.408062 0 0.136745 0.41497 0 0.149726 0.383199 0 0.181543 0.425757 0 0.17764 0.39611 0 0.168484 0.382064 0 0.152167 0.403086 0 0.168269 0.41359 0 0.132509 0.445954 0 0.145214 0.46906 0 0.124254 0.429625 0 0.113204 0.454524 0 0.1251 0.467425 0 0.106511 0.430466 0 0.170992 0.441634 0 0.152674 0.427821 0 0.18173 0.457489 0 0.150712 0.445844 0 0.162163 0.464944 0 0.0254103 0.482417 0 0.0277972 0.502661 0 0.05745 0.50081 0 0.0422826 0.511938 0 0.0431513 0.482126 0 0.0591544 0.478256 0 0.0951253 0.488468 0 0.0683601 0.516966 0 0.0908332 0.510274 0 0.0766149 0.496455 0 0.0784368 0.473858 0 0.0128147 0.532538 0 0.0276294 0.557708 0 0.0503646 0.529751 0 0.0291239 0.530425 0 0.0429595 0.547862 0 0.0721267 0.53646 0 0.0900265 0.556925 0 0.0631189 0.552154 0 0.0892991 0.532194 0 0.111209 0.482212 0 0.136737 0.486504 0 0.106175 0.51567 0 0.140278 0.511092 0 0.119942 0.49776 0 0.153437 0.495106 0 0.189698 0.496788 0 0.188792 0.476586 0 0.16945 0.482331 0 0.170573 0.503609 0 0.122319 0.540327 0 0.140379 0.537081 0 0.13515 0.563039 0 0.12373 0.518789 0 0.104214 0.541992 0 0.117021 0.560038 0 0.184548 0.559266 0 0.15324 0.548193 0 0.155291 0.521147 0 0.169815 0.543564 0 0.173906 0.525039 0 0.191127 0.518625 0 0.192612 0.542275 0 0.212528 0.213609 0 0.230979 0.216402 0 0.201979 0.227549 0 0.231746 0.23585 0 0.284428 0.229321 0 0.250037 0.232424 0 0.25134 0.208518 0 0.277554 0.20914 0 0.265418 0.225869 0 0.213349 0.267284 0 0.236822 0.256248 0 0.216933 0.244009 0 0.200165 0.253115 0 0.231881 0.274717 0 0.211306 0.28449 0 0.252372 0.276042 0 0.255668 0.254816 0 0.271932 0.248829 0 0.283533 0.264334 0 0.269155 0.276837 0 0.309132 0.197354 0 0.309959 0.227066 0 0.299798 0.213893 0 0.328489 0.220583 0 0.33213 0.237016 0 0.327715 0.199554 0 0.363035 0.198326 0 0.354514 0.221488 0 0.375166 0.229952 0 0.376695 0.210174 0 0.344456 0.20502 0 0.354855 0.238185 0 0.293901 0.246035 0 0.323534 0.262991 0 0.317043 0.287429 0 0.303774 0.269287 0 0.312015 0.248247 0 0.295178 0.28547 0 0.362577 0.259632 0 0.334247 0.279864 0 0.34123 0.25416 0 0.378368 0.249375 0 0.352318 0.273746 0 0.376085 0.277996 0 0.238052 0.29282 0 0.226802 0.306896 0 0.232542 0.325677 0 0.21151 0.327679 0 0.208789 0.302966 0 0.256058 0.329563 0 0.262367 0.299294 0 0.249696 0.310862 0 0.28075 0.294785 0 0.274423 0.317667 0 0.200806 0.353449 0 0.227942 0.377054 0 0.217581 0.360747 0 0.224565 0.343819 0 0.243912 0.34525 0 0.243278 0.366347 0 0.273441 0.338403 0 0.260761 0.356001 0 0.283615 0.354821 0 0.270164 0.372472 0 0.309485 0.305884 0 0.330089 0.334086 0 0.294086 0.313317 0 0.314982 0.330543 0 0.293567 0.331873 0 0.327351 0.306969 0 0.364739 0.295966 0 0.347398 0.29575 0 0.360803 0.321571 0 0.376109 0.31363 0 0.342318 0.315568 0 0.309994 0.378823 0 0.330083 0.376173 0 0.306073 0.348418 0 0.32079 0.358561 0 
[...]
   <PointData  Vectors="vector">
    <DataArray Name="SortedParticle_ID" type="Int32" Format="ascii">
    0 1 2 3 4 5 6 7 8 9 10 11 12 13 14 15 16 17 18 19 20 21 22 23 24 25 26 27 28 29 30 31 32 33 34 35 36 37 38 39 40 41 42 43 44 45 46 47 48 49 50 51 52 53 54 55 56 57 58 59 60 61 62 63 64 65 66 67 68 69 70 71 72 73 74 75 76 77 78 79 80 81 82 83 84 85 86 87 88 89 90 91 92 93 94 95 96 97 98 99 100 101 102 103 104 105 106 107 108 109 110 111 112 113 114 115 116 117 118 119 120 121 122 123 124 125 126 127 128 129 130 131 132 133 134 135 136 137 138 139 140 141 142 143 144 145 146 147 148 149 150 151 152 153 154 155 156 157 158 159 160 161 162 163 164 165 166 167 168 169 170 171 172 173 174 175 176 177 178 179 180 181 182 183 184 185 186 187 188 189 190 191 192 193 194 195 196 197 198 199 200 201 202 203 204 205 206 207 208 209 210 211 212 213 214 215 216 217 218 219 220 221 222 223 224 225 226 227 228 229 230 231 232 233 234 235 236 237 238 239 240 241 242 243 244 245 246 247 248 249 250 251 252 253 254 255 256 257 258 259 260 261 262 263 264 265 266 267 268 269 270 271 272 273 274 275 276 277 278 279 280 281 282 283 284 285 286 287 288 289 290 291 292 293 294 295 296 297 298 299 300 301 302 303 304 305 306 307 308 309 310 311 312 313 314 315 316 317 318 319 320 321 322 323 324 325 326 327 328 329 330 331 332 333 334 335 336 337 338 339 340 341 342 343 344 345 346 347 348 349 350 351 352 353 354 355 356 357 358 359 360 361 362 363 364 365 366 367 368 369 370 371 372 373 374 375 376 377 378 379 380 381 382 383 384 385 386 387 388 389 390 391 392 393 394 395 396 397 398 399 400 401 402 403 404 405 406 407 408 409 410 411 412 413 414 415 416 417 418 419 420 421 422 423 424 425 426 427 428 429 430 431 432 433 434 435 436 437 438 439 440 441 442 443 444 445 446 447 448 449 450 451 452 453 454 455 456 457 458 459 460 461 462 463 464 465 466 467 468 469 470 471 472 473 474 475 476 477 478 479 480 481 482 483 484 485 486 487 488 489 490 491 492 493 494 495 496 497 498 499 500 501 502 503 504 505 506 507 508 509 510 511 512 513 514 515 516 517 518 519 520 521 522 523 524 525 526 527 528 529 530 531 532 533 534 535 536 537 538 539 540 541 542 543 544 545 546 547 548 549 550 551 552 553 554 555 556 557 558 559 560 561 562 563 564 565 566 567 568 569 570 571 572 573 574 575 576 577 578 579 580 581 582 583 584 585 586 587 588 589 590 591 592 593 594 595 596 597 598 599 600 601 602 603 604 605 606 607 608 609 610 611 612 613 614 615 616 617 618 619 620 621 622 623 624 625 626 627 628 629 630 631 632 633 634 635 636 637 638 639 640 641 642 643 644 645 646 647 648 649 650 651 652 653 654 655 656 657 658 659 660 661 662 663 664 665 666 667 668 669 670 671 672 673 674 675 676 677 678 679 680 681 682 683 684 685 686 687 688 689 690 691 692 693 694 695 696 697 698 699 700 701 702 703 704 705 706 707 708 709 710 711 712 713 714 715 716 717 718 719 720 721 722 723 724 725 726 727 728 729 730 731 732 733 734 735 736 737 738 739 740 741 742 743 744 745 746 747 748 749 750 751 752 753 754 755 756 757 758 759 760 761 762 763 764 765 766 767 768 769 770 771 772 773 774 775 776 777 778 779 780 781 782 783 784 785 786 787 788 789 790 791 792 793 794 795 796 797 798 799 800 801 802 803 804 805 806 807 808 809 810 811 812 813 814 815 816 817 818 819 820 821 822 823 824 825 826 827 828 829 830 831 832 833 834 835 836 837 838 839 840 841 842 843 844 845 846 847 848 849 850 851 852 853 854 855 856 857 858 859 860 861 862 863 864 865 866 867 868 869 870 871 872 873 874 875 876 877 878 879 880 881 882 883 884 885 886 887 888 889 890 891 892 893 894 895 896 897 898 899 900 901 902 903 904 905 906 907 908 909 910 911 912 913 914 915 916 917 918 919 920 921 922 923 924 925 926 927 928 929 930 931 932 933 934 935 936 937 938 939 940 941 942 943 944 945 946 947 948 949 950 951 952 953 954 955 956 957 958 959 960 961 962 963 964 965 966 967 968 969 970 971 972 973 974 975 976 977 978 979 980 981 982 983 984 985 986 987 988 989 990 991 992 993 994 995 996 997 998 999 1000 1001 1002 1003 1004 1005 1006 1007 1008 1009 1010 1011 1012 1013 1014 1015 1016 1017 1018 1019 1020 1021 1022 1023 1024 1025 1026 1027 1028 1029 1030 1031 1032 1033 1034 1035 1036 1037 1038 1039 1040 1041 1042 1043 1044 1045 1046 1047 1048 1049 1050 1051 1052 1053 1054 1055 1056 1057 1058 1059 1060 1061 1062 1063 1064 1065 1066 1067 1068 1069 1070 1071 1072 1073 1074 1075 1076 1077 1078 1079 1080 1081 1082 1083 1084 1085 1086 1087 1088 1089 1090 1091 1092 1093 1094 1095 1096 1097 1098 1099 1100 1101 1102 1103 1104 1105 1106 1107 1108 1109 1110 1111 1112 1113 1114 1115 1116 1117 1118 1119 1120 1121 1122 1123 1124 1125 1126 1127 1128 1129 1130 1131 1132 1133 1134 1135 1136 1137 1138 1139 1140 1141 1142 1143 1144 1145 1146 1147 1148 1149 1150 1151 1152 1153 1154 1155 1156 1157 1158 1159 1160 1161 1162 1163 1164 1165 1166 1167 1168 1169 1170 1171 1172 1173 1174 1175 1176 1177 1178 1179 1180 1181 1182 1183 1184 1185 1186 1187 1188 1189 1190 1191 1192 1193 1194 1195 1196 1197 1198 1199 1200 1201 1202 1203 1204 1205 1206 1207 1208 1209 1210 1211 1212 1213 1214 1215 1216 1217 1218 1219 1220 1221 1222 1223 1224 1225 1226 1227 1228 1229 1230 1231 1232 1233 1234 1235 1236 1237 1238 1239 1240 1241 1242 1243 1244 1245 1246 1247 1248 1249 1250 1251 1252 1253 1254 1255 1256 1257 1258 1259 1260 1261 1262 1263 1264 1265 1266 1267 1268 1269 1270 1271 1272 1273 1274 1275 1276 1277 1278 1279 1280 1281 1282 1283 1284 1285 1286 1287 1288 1289 1290 1291 1292 1293 1294 1295 1296 1297 1298 1299 1300 1301 1302 1303 1304 1305 1306 1307 1308 1309 1310 1311 1312 1313 1314 1315 1316 1317 1318 1319 1320 1321 1322 1323 1324 1325 1326 1327 1328 1329 1330 1331 1332 1333 1334 1335 1336 1337 1338 1339 1340 1341 1342 1343 1344 1345 1346 1347 1348 1349 1350 1351 1352 1353 1354 1355 1356 1357 1358 1359 1360 1361 1362 1363 1364 1365 1366 1367 1368 1369 1370 1371 1372 1373 1374 1375 1376 1377 1378 1379 1380 1381 1382 1383 1384 1385 1386 1387 1388 1389 1390 1391 1392 1393 1394 1395 1396 1397 1398 1399 1400 1401 1402 1403 1404 1405 1406 1407 1408 1409 1410 1411 1412 1413 1414 1415 1416 1417 1418 1419 1420 1421 1422 1423 1424 1425 1426 1427 1428 1429 1430 1431 1432 1433 1434 1435 1436 1437 1438 1439 1440 1441 1442 1443 1444 1445 1446 1447 1448 1449 1450 1451 1452 1453 1454 1455 1456 1457 1458 1459 1460 1461 1462 1463 1464 1465 1466 1467 1468 1469 1470 1471 1472 1473 1474 1475 1476 1477 1478 1479 1480 1481 1482 1483 1484 1485 1486 1487 1488 1489 1490 1491 1492 1493 1494 1495 1496 1497 1498 1499 1500 1501 1502 1503 1504 1505 1506 1507 1508 1509 1510 1511 1512 1513 1514 1515 1516 1517 1518 1519 1520 1521 1522 1523 1524 1525 1526 1527 1528 1529 1530 1531 1532 1533 1534 1535 1536 1537 1538 1539 1540 1541 1542 1543 1544 1545 1546 1547 1548 1549 1550 1551 1552 1553 1554 1555 1556 1557 1558 1559 1560 1561 1562 1563 1564 1565 1566 1567 1568 1569 1570 1571 1572 1573 1574 1575 1576 1577 1578 1579 1580 1581 1582 1583 1584 1585 1586 1587 1588 1589 1590 1591 1592 1593 1594 1595 1596 1597 1598 1599 1600 1601 1602 1603 1604 1605 1606 1607 1608 1609 1610 1611 1612 1613 1614 1615 1616 1617 1618 1619 1620 1621 1622 1623 1624 1625 1626 1627 1628 1629 1630 1631 1632 1633 1634 1635 1636 1637 1638 1639 1640 1641 1642 1643 1644 1645 1646 1647 1648 1649 1650 1651 1652 1653 1654 1655 1656 1657 1658 1659 1660 1661 1662 1663 1664 1665 1666 1667 1668 1669 1670 1671 1672 1673 1674 1675 1676 1677 1678 1679 1680 1681 1682 1683 1684 1685 1686 1687 1688 1689 1690 1691 1692 1693 1694 1695 1696 1697 1698 1699 1700 1701 1702 1703 1704 1705 1706 1707 1708 1709 1710 1711 1712 1713 1714 1715 1716 1717 1718 1719 1720 1721 1722 1723 1724 1725 1726 1727 1728 1729 1730 1731 1732 1733 1734 1735 1736 1737 1738 1739 1740 1741 1742 1743 1744 1745 1746 1747 1748 1749 1750 1751 1752 1753 1754 1755 1756 1757 1758 1759 1760 1761 1762 1763 1764 1765 1766 1767 1768 1769 1770 1771 1772 1773 1774 1775 1776 1777 1778 1779 1780 1781 1782 1783 1784 1785 1786 1787 1788 1789 1790 1791 1792 1793 1794 1795 1796 1797 1798 1799 1800 1801 1802 1803 1804 1805 1806 1807 1808 1809 1810 1811 1812 1813 1814 1815 1816 1817 1818 1819 1820 1821 1822 1823 1824 1825 1826 1827 1828 1829 1830 1831 1832 1833 1834 1835 1836 1837 1838 1839 1840 1841 1842 1843 1844 1845 1846 1847 1848 1849 1850 1851 1852 1853 1854 1855 1856 1857 1858 1859 1860 1861 1862 1863 1864 1865 1866 1867 1868 1869 1870 1871 1872 1873 1874 1875 1876 1877 1878 1879 1880 1881 1882 1883 1884 1885 1886 1887 1888 1889 1890 1891 1892 1893 1894 1895 1896 1897 1898 1899 1900 1901 1902 1903 1904 1905 1906 1907 1908 1909 1910 1911 1912 1913 1914 1915 1916 1917 1918 1919 1920 1921 1922 1923 1924 1925 1926 1927 1928 1929 1930 1931 1932 1933 1934 1935 1936 1937 1938 1939 1940 1941 1942 1943 1944 1945 1946 1947 1948 1949 1950 1951 1952 1953 1954 1955 1956 1957 1958 1959 1960 1961 1962 1963 1964 1965 1966 1967 1968 1969 1970 1971 1972 1973 1974 1975 1976 1977 1978 1979 1980 1981 1982 1983 1984 1985 1986 1987 1988 1989 1990 1991 1992 1993 1994 1995 1996 1997 1998 1999 2000 2001 2002 2003 2004 2005 2006 2007 2008 2009 2010 2011 2012 2013 2014 2015 2016 2017 2018 2019 2020 2021 2022 2023 2024 2025 2026 2027 2028 2029 2030 2031 2032 2033 2034 2035 2036 2037 2038 2039 2040 2041 
    </DataArray>
    <DataArray Name="OriginalID" type="Int32" Format="ascii">
    7 6 0 2 1 3 4 1288 5 79 43 42 78 114 151 150 115 74 72 36 37 38 73 110 108 144 145 146 109 186 223 187 222 294 258 330 295 259 331 218 216 181 180 182 217 325 288 252 324 254 253 290 326 289 39 75 40 76 112 147 111 148 1318 1757 380 851 41 77 2028 149 1310 2200 113 184 220 183 219 328 291 255 327 292 256 806 1832 2205 2208 185 221 329 1886 2026 257 293 366 403 367 402 439 475 438 474 396 360 398 361 362 397 432 434 470 433 469 468 583 511 546 582 510 547 619 654 655 618 576 504 578 541 542 505 577 506 540 612 650 614 649 613 648 400 364 363 399 435 472 436 471 401 1822 1536 365 2174 1747 531 473 437 1857 1899 405 580 579 508 507 543 544 652 616 615 651 545 2165 581 1976 509 1781 2175 617 1468 653 691 726 690 727 834 762 835 763 799 798 722 684 720 685 686 721 828 756 792 793 758 794 830 757 829 871 906 870 907 979 943 942 978 900 864 866 901 902 865 936 972 973 938 974 937 724 723 688 687 831 796 759 760 832 795 689 2220 1794 2160 725 1898 1561 797 761 833 903 868 904 867 940 939 975 976 869 1754 1927 905 2249 941 2199 2229 977 1089 152 1194 211 392 789 214 1992 251 1311 395 1188 239 698 1307 389 153 238 374 266 261 135 273 228 213 161 35 742 341 2119 263 2145 2266 1868 778 140 2186 1844 1829 394 1904 2091 2058 2150 315 1964 2170 28 332 457 352 2106 1387 1944 1746 195 451 1377 1821 1918 458 340 2116 200 274 116 1854 275 59 94 248 1793 379 283 174 164 202 1965 204 198 2074 277 282 33 271 1861 2057 196 1930 81 210 97 459 206 931 133 342 1873 314 237 70 424 1905 303 233 143 137 194 179 357 682 244 160 124 1971 32 54 159 96 118 321 87 285 232 2104 24 104 447 1902 21 49 18 23 64 91 17 16 122 139 358 1608 193 1935 57 90 1758 892 1910 1669 62 381 414 2166 1435 1837 269 92 1261 11 197 31 311 2089 136 53 88 125 131 58 429 60 158 177 34 462 99 1998 162 495 46 155 1745 1836 2211 2188 1805 1784 427 1678 2128 2156 167 336 84 2157 967 50 1766 1664 2162 2096 1339 731 2114 2226 410 278 1777 2000 913 2161 2225 2147 2173 2189 1878 1855 1807 2217 2050 2032 2127 1361 1139 2072 1903 170 106 323 100 377 286 1241 1705 301 1257 1890 2158 1954 241 165 227 1722 1732 1687 2133 2029 489 2132 71 1928 1852 2169 2068 2202 1987 1802 1069 2265 1721 1856 93 1815 2041 908 2020 2023 2163 1875 1978 597 2084 2085 2190 2172 1947 2183 406 1986 2086 2144 2017 1916 2109 501 1161 2079 2143 2151 1948 982 2048 2131 2168 334 915 1816 2099 1792 2194 2134 2004 2219 2223 2035 2187 2198 1142 1772 968 2052 1961 987 1996 1827 637 1884 446 2047 980 1124 2195 2148 2081 1775 519 1959 2045 1923 521 1100 408 1968 1088 1919 2152 1880 2204 984 1135 1176 911 587 2113 443 2006 1999 2021 2141 946 1908 2107 1136 156 2159 154 240 413 2136 1990 1562 415 55 142 313 119 123 205 235 56 47 121 27 1871 138 85 236 712 1933 386 1384 212 98 2178 1001 991 2111 351 120 2002 20 493 1208 284 485 2125 2137 52 51 83 2203 12 349 2164 129 48 95 201 265 26 172 1812 308 486 169 309 61 25 231 249 2135 132 166 382 411 450 679 226 66 1958 1994 347 1806 339 63 1723 191 1338 2124 693 1988 2015 2016 564 1934 1955 1099 520 1180 1909 247 889 190 2040 1895 2022 571 2064 1879 2071 371 2042 800 596 522 2167 643 2105 1989 2069 369 2108 1949 1173 555 1863 841 2176 1167 1690 1385 2077 2037 694 2056 1102 1997 2117 1172 2014 348 676 1300 2090 1639 1912 767 1869 2010 2033 2043 513 2009 441 499 2067 1892 260 1983 497 568 1016 1134 2062 872 404 981 2076 574 1911 534 1952 1014 1050 1015 1051 1087 1159 1158 1086 1122 1123 1010 1045 1009 1046 1044 1008 1153 1082 1154 1081 1152 1080 1116 1118 1117 1011 1047 1012 1048 1120 1156 1155 1119 1083 1084 1013 1049 1826 1849 466 1157 1121 1085 1344 2030 1926 1092 1056 2253 2120 1128 1254 815 736 554 567 695 1053 1744 1605 591 1838 1629 1093 735 710 741 891 1103 1951 2275 672 1525 1595 585 1950 705 1127 2065 1658 1126 1768 1375 912 877 844 839 2245 2061 599 1165 2053 2102 2138 1065 1736 1094 1168 1057 1055 1125 1931 481 1170 1061 1095 1370 1286 948 670 1756 1543 1059 1098 566 1860 1913 1090 1019 533 947 1922 876 490 842 482 2092 675 537 1887 1033 1130 2031 572 1894 874 708 1277 773 1037 1383 1164 1897 2213 2001 1219 1885 873 592 1199 1287 629 2153 628 1475 632 1866 1243 1256 514 1349 703 862 662 1341 667 707 1264 1939 2264 1242 644 811 1535 606 852 1020 1326 1279 1573 817 1132 1322 1205 986 785 1686 744 1441 784 933 983 461 965 1026 1798 1096 1424 1496 1270 1431 1646 1396 918 807 2272 1207 1031 1186 1485 1252 1174 1728 1202 748 820 1029 215 1888 753 1201 1248 1064 1247 1021 1432 1319 1600 1550 895 857 1163 1581 1476 1514 1653 1621 1275 417 117 2005 1953 14 44 299 199 105 10 393 317 385 2101 178 428 224 126 203 264 1966 188 19 102 1739 1710 270 128 276 337 1039 1731 1870 354 2260 1591 1977 268 346 318 82 89 2269 454 189 1867 1115 1929 2027 2060 1787 322 130 1433 86 359 338 826 1108 134 353 67 262 1063 2122 45 448 598 530 316 492 375 320 1995 176 306 387 465 65 1924 893 2248 491 68 279 1771 494 312 13 850 859 1507 246 1820 488 208 1246 445 2259 173 2171 1943 1430 1753 2038 345 297 1660 355 1962 467 1240 923 527 1675 305 452 801 281 532 29 307 1862 536 498 926 733 836 2184 234 636 2013 1967 528 2046 1321 477 1517 22 1466 1937 1330 2083 1901 2118 2100 2034 368 2051 2018 2044 430 1538 2073 503 1404 1297 766 476 523 1296 656 1981 843 1896 442 2110 765 728 425 2140 551 1956 1938 584 2270 464 1024 1925 2115 1984 802 1200 300 1940 1859 2008 333 635 1889 1236 557 1893 412 548 1427 2036 302 600 1105 595 560 1104 1353 565 539 230 1147 1920 423 549 502 1882 518 561 1017 804 645 1178 1864 517 620 601 2087 605 808 640 1891 1972 512 1197 1144 1540 633 589 594 837 669 1915 2019 525 1299 666 770 480 729 30 1175 768 610 1881 878 418 2003 1265 989 1368 526 229 456 15 787 80 630 1969 697 407 1062 671 2103 556 1177 553 419 570 914 552 1076 207 622 623 668 1340 593 590 663 969 657 608 2012 1068 609 479 634 573 2007 478 141 658 586 909 1289 699 624 674 706 1179 1221 714 779 1028 730 661 625 101 734 1780 626 1217 738 659 627 1483 1985 171 1003 1259 764 1182 422 803 416 1921 1141 1262 838 1406 9 538 1140 298 700 2059 356 373 1963 1022 487 747 1079 1245 1054 1233 846 858 819 1250 713 1091 783 810 740 421 2054 1030 1000 1190 1032 952 1101 848 881 1232 919 774 1075 1187 1073 1151 849 1216 780 809 1255 709 1070 1185 1066 1211 883 997 745 1189 1320 1877 702 769 813 677 372 1231 743 1272 683 631 665 771 861 701 1223 1298 916 781 863 879 647 1508 1329 431 483 1635 455 1072 717 776 69 646 1312 786 2024 641 1386 1284 1114 1278 882 1555 1309 1244 896 791 1267 993 1058 1193 1345 1443 1464 1324 1042 996 1738 746 1213 955 1218 935 885 1274 1280 1067 1266 932 777 296 814 1276 1215 1107 752 267 8 1258 818 1301 790 715 1225 887 962 854 1005 680 1036 1212 1729 1932 1942 1534 1665 1407 1541 1479 1624 1741 1413 1547 1511 1162 1448 1491 2276 1717 1579 1631 1811 1533 1129 1389 1709 1782 1760 1570 1526 1449 985 1500 1706 1769 1679 1666 1645 1399 1405 1560 1576 1133 1604 388 1471 1367 1688 1594 1715 2256 1803 1578 1097 1421 1720 1671 1131 1637 1611 1052 1713 2070 1490 319 1670 1596 1556 1800 2197 1649 2193 1641 463 1394 1422 1523 1171 1343 1457 1369 1323 1148 1436 1400 1004 1676 1198 897 1206 788 1378 1071 755 921 1249 1415 1337 1423 1673 1549 1420 1518 934 1531 1447 1150 1214 1007 1043 1228 860 1509 856 1363 1181 1260 1027 1408 1303 920 884 718 1112 970 1993 930 929 1374 1283 1077 1160 958 1497 1294 1251 1419 1366 749 1209 1146 1606 1352 898 992 927 998 964 1239 1195 1111 1295 1450 1333 1552 960 453 1196 1498 1350 1224 2255 1539 1034 1395 1235 1572 1652 1651 1501 1680 1743 1691 2273 1824 1204 1041 1567 1388 1668 1695 1569 1357 1598 888 999 1292 1038 1192 1149 719 1227 390 954 963 1486 1510 1222 1619 1365 925 971 1453 1334 1074 966 1488 1613 1355 1362 1530 827 1991 1505 1906 1184 961 886 1354 1454 1191 924 1403 1718 1592 1615 2239 2123 1840 2268 1702 1848 1644 2258 1602 2251 1914 1936 1438 1719 1789 1672 1580 1694 1568 384 1529 1708 1452 928 1779 1348 1703 1484 1858 1640 2025 1481 1566 1628 1522 1474 956 1617 1402 1281 1446 1109 1462 1565 376 1494 1544 1381 1390 449 1599 1426 1716 1078 1707 1590 1358 1482 1795 1393 1473 1528 1650 1626 1492 1681 1831 1842 1360 1470 1458 1778 1563 1692 1304 1733 1429 460 1391 1503 2277 1512 1478 1625 1846 350 2238 1504 1975 1647 1346 1683 1725 1325 225 1437 2222 1335 1575 1524 1282 1557 272 1414 1819 1364 1461 1314 1623 1677 1506 103 163 378 1356 1548 1513 1472 1610 1392 1574 1593 1655 1791 1410 1642 1416 1439 1830 1749 1551 304 409 1638 1425 1493 1455 1477 1850 1588 1643 1409 1788 1542 1607 1661 1418 2257 2236 1632 1616 1546 420 1253 1417 1411 1428 1809 1382 1900 343 1412 1499 391 910 1633 1463 1545 192 2182 1872 2233 1874 1785 1714 1609 2250 1023 2180 1459 563 2097 2218 2244 2082 2240 1774 2254 245 1748 1828 2243 1735 2177 1834 1841 1810 1583 1818 1689 2271 1750 2216 1698 1693 988 2201 2232 1169 2185 1786 1585 1773 1724 1957 2212 2209 500 1790 1797 2055 344 1630 1636 1060 2214 1586 1770 1839 1917 1654 1656 2228 529 1659 2192 2247 1814 1764 1614 1742 243 2129 1776 2210 1740 1759 1853 2263 2142 949 496 1657 1801 280 1577 383 1699 2155 2126 1701 2252 1763 2230 168 2262 1752 2149 2242 2196 1612 335 1727 2139 1813 1979 287 2261 2235 1737 1527 1627 1851 1589 2234 1843 1553 1883 1444 2237 2231 1755 1684 1648 1847 2221 127 1587 1804 1835 1823 1601 1682 1761 310 175 242 1582 1603 2075 2274 
    </DataArray>
    <DataArray Name="Density" type="Float32" Format="ascii">