<?xml version="1.0"?>
<VTKFile type="PolyData" version="0.1" byte_order="LittleEndian">
 <PolyData>
  <Piece Name ="WaterBlock" NumberOfPoints="2121" NumberOfVerts="2121">
   <Points>
    <DataArray Name="Position" type="Float32"  NumberOfComponents="3" Format="ascii">
    0.01 0.00706366 0 0.03 0.00706366 0 0.05 0.00706366 0 0.09 0.00706366 0 0.07 0.00706366 0 0.11 0.00706366 0 0.13 0.00706366 0 0.15 0.00706366 0 0.19 0.00706366 0 0.17 0.00706366 0 0.01 0.0470637 0 0.01 0.0270637 0 0.01 0.0670637 0 0.01 0.0870637 0 0.01 0.107064 0 0.01 0.127064 0 0.01 0.147064 0 0.00906723 0.184772 0 0.0101842 0.164873 0 0.05 0.0470637 0 0.03 0.0470637 0 0.03 0.0270637 0 0.05 0.0270637 0 0.09 0.0270637 0 0.07 0.0270637 0 0.09 0.0470637 0 0.07 0.0470637 0 0.03 0.0870637 0 0.05 0.0670637 0 0.03 0.0670637 0 0.05 0.0870637 0 0.07 0.0870637 0 0.09 0.0670637 0 0.09 0.0870637 0 0.07 0.0670637 0 0.13 0.0470637 0 0.11 0.0470637 0 0.13 0.0270637 0 0.11 0.0270637 0 0.17 0.0470637 0 0.19 0.0270637 0 0.15 0.0470637 0 0.17 0.0270637 0 0.19 0.0470637 0 0.15 0.0270637 0 0.11 0.0670637 0 0.13 0.0870637 0 0.11 0.0870637 0 0.13 0.0670637 0 0.19 0.0870637 0 0.19 0.0670637 0 0.17 0.0670637 0 0.15 0.0870637 0 0.17 0.0870637 0 0.15 0.0670637 0 0.05 0.107064 0 0.03 0.107064 0 0.03 0.127064 0 0.05 0.127064 0 0.05 0.147064 0 0.03 0.147064 0 0.09 0.127064 0 0.09 0.107064 0 0.07 0.147064 0 0.07 0.127064 0 0.09 0.147064 0 0.07 0.107064 0 0.0373036 0.191782 0 0.0284356 0.176058 0 0.0570818 0.178086 0 0.0407423 0.163473 0 0.0686209 0.164924 0 0.0782322 0.189901 0 0.101362 0.164266 0 0.0998294 0.193773 0 0.0869214 0.172666 0 0.13 0.147064 0 0.13 0.127064 0 0.13 0.107064 0 0.11 0.127064 0 0.11 0.147064 0 0.11 0.107064 0 0.19 0.127064 0 0.19 0.107064 0 0.17 0.107064 0 0.17 0.147064 0 0.15 0.147064 0 0.15 0.127064 0 0.19 0.147064 0 0.17 0.127064 0 0.15 0.107064 0 0.124644 0.167148 0 0.11406 0.184493 0 0.131731 0.1882 0 0.142861 0.166592 0 0.16385 0.165938 0 0.156373 0.185009 0 0.182131 0.168117 0 0.172676 0.194175 0 0.18992 0.184775 0 0.21 0.00706366 0 0.23 0.00706366 0 0.25 0.00706366 0 0.27 0.00706366 0 0.31 0.00706366 0 0.33 0.00706366 0 0.29 0.00706366 0 0.37 0.00706366 0 0.35 0.00706366 0 0.39 0.00706366 0 0.41 0.00706366 0 0.45 0.00706366 0 0.47 0.00706366 0 0.43 0.00706366 0 0.51 0.00706366 0 0.49 0.00706366 0 0.53 0.00706366 0 0.55 0.00706366 0 0.21 0.0470637 0 0.23 0.0470637 0 0.21 0.0270637 0 0.23 0.0270637 0 0.27 0.0470637 0 0.25 0.0270637 0 0.25 0.0470637 0 0.27 0.0270637 0 0.21 0.0670637 0 0.23 0.0670637 0 0.23 0.0870637 0 0.21 0.0870637 0 0.27 0.0670637 0 0.25 0.0670637 0 0.25 0.0870637 0 0.27 0.0870637 0 0.31 0.0270637 0 0.33 0.0470637 0 0.33 0.0270637 0 0.29 0.0470637 0 0.31 0.0470637 0 0.29 0.0270637 0 0.35 0.0270637 0 0.37 0.0270637 0 0.35 0.0470637 0 0.37 0.0470637 0 0.29 0.0670637 0 0.31 0.0670637 0 0.31 0.0870637 0 0.29 0.0870637 0 0.33 0.0870637 0 0.33 0.0670637 0 0.35 0.0870637 0 0.35 0.0670637 0 0.37 0.0870637 0 0.37 0.0670637 0 0.21 0.107064 0 0.23 0.127064 0 0.23 0.107064 0 0.21 0.147064 0 0.23 0.147064 0 0.21 0.127064 0 0.27 0.107064 0 0.25 0.127064 0 0.25 0.107064 0 0.27 0.127064 0 0.25 0.147064 0 0.27 0.147064 0 0.207266 0.19012 0 0.203025 0.164829 0 0.23969 0.164396 0 0.227887 0.186976 0 0.220843 0.170691 0 0.286865 0.18451 0 0.251953 0.187068 0 0.257803 0.170855 0 0.271844 0.192773 0 0.275633 0.164978 0 0.33 0.107064 0 0.29 0.127064 0 0.29 0.107064 0 0.31 0.107064 0 0.31 0.147064 0 0.31 0.127064 0 0.33 0.127064 0 0.29 0.147064 0 0.33 0.147064 0 0.37 0.107064 0 0.35 0.107064 0 0.37 0.127064 0 0.37 0.147064 0 0.35 0.127064 0 0.35 0.147064 0 0.310169 0.183076 0 0.31834 0.166225 0 0.29693 0.166412 0 0.361574 0.185833 0 0.33865 0.167145 0 0.358436 0.166814 0 0.336931 0.184129 0 0.37835 0.166192 0 0.41 0.0470637 0 0.41 0.0270637 0 0.39 0.0270637 0 0.39 0.0470637 0 0.47 0.0270637 0 0.45 0.0470637 0 0.43 0.0470637 0 0.45 0.0270637 0 0.47 0.0470637 0 0.43 0.0270637 0 0.39 0.0870637 0 0.39 0.0670637 0 0.41 0.0670637 0 0.41 0.0870637 0 0.43 0.0870637 0 0.47 0.0870637 0 0.45 0.0870637 0 0.45 0.0670637 0 0.47 0.0670637 0 0.43 0.0670637 0 0.51 0.0270637 0 0.49 0.0470637 0 0.49 0.0270637 0 0.51 0.0470637 0 0.53 0.0270637 0 0.55 0.0270637 0 0.55 0.0470637 0 0.53 0.0470637 0 0.51 0.0870637 0 0.51 0.0670637 0 0.49 0.0870637 0 0.49 0.0670637 0 0.55 0.0870637 0 0.53 0.0870637 0 0.55 0.0670637 0 0.53 0.0670637 0 0.39 0.107064 0 0.39 0.127064 0 0.41 0.107064 0 0.41 0.147064 0 0.41 0.127064 0 0.39 0.147064 0 0.45 0.107064 0 0.47 0.147064 0 0.43 0.107064 0 0.47 0.107064 0 0.47 0.127064 0 0.43 0.127064 0 0.45 0.127064 0 0.43 0.147064 0 0.45 0.147064 0 0.383018 0.186466 0 0.41876 0.188672 0 0.417258 0.167281 0 0.400772 0.189245 0 0.398283 0.166779 0 0.455881 0.18831 0 0.435726 0.166781 0 0.439279 0.187762 0 0.455653 0.166649 0 0.51 0.127064 0 0.51 0.147064 0 0.49 0.147064 0 0.49 0.127064 0 0.49 0.107064 0 0.51 0.107064 0 0.55 0.147064 0 0.53 0.127064 0 0.53 0.107064 0 0.55 0.107064 0 0.53 0.147064 0 0.55 0.127064 0 0.475989 0.165439 0 0.498771 0.166235 0 0.515122 0.185744 0 0.495543 0.186293 0 0.477158 0.183539 0 0.519004 0.16551 0 0.556585 0.165735 0 0.563101 0.190194 0 0.539118 0.186773 0 0.538209 0.169186 0 0.0100076 0.232866 0 0.00907117 0.268137 0 0.00830855 0.296296 0 0.0103056 0.3183 0 0.0102238 0.363725 0 0.00668855 0.342134 0 0.0156486 0.217289 0 0.0157734 0.201006 0 0.056731 0.19613 0 0.0349104 0.213782 0 0.0460125 0.232729 0 0.0535012 0.214316 0 0.0740552 0.239419 0 0.0817789 0.206729 0 0.0950065 0.22258 0 0.0722269 0.22202 0 0.0958458 0.241572 0 0.0140044 0.251368 0 0.0358701 0.262279 0 0.0389894 0.282911 0 0.0307508 0.24207 0 0.0547004 0.248173 0 0.0538069 0.268091 0 0.0208536 0.281631 0 0.0763418 0.257571 0 0.0719772 0.277057 0 0.102702 0.256869 0 0.091122 0.272448 0 0.114308 0.231643 0 0.111801 0.209402 0 0.127539 0.212768 0 0.134711 0.235427 0 0.146825 0.218582 0 0.147478 0.198925 0 0.165308 0.219506 0 0.158677 0.237567 0 0.186558 0.230746 0 0.181052 0.20943 0 0.106182 0.285084 0 0.119717 0.265016 0 0.125205 0.283313 0 0.144158 0.271825 0 0.12882 0.249826 0 0.15098 0.257633 0 0.166622 0.271408 0 0.184003 0.270725 0 0.191285 0.250375 0 0.172403 0.247483 0 0.0559224 0.294465 0 0.0447098 0.305902 0 0.0447388 0.32618 0 0.0256131 0.305861 0 0.0238321 0.329824 0 0.075913 0.313574 0 0.0764702 0.294954 0 0.10096 0.321442 0 0.0855982 0.331937 0 0.0621522 0.323609 0 0.0953087 0.300132 0 0.0575933 0.345615 0 0.0275524 0.358265 0 0.0450052 0.375927 0 0.03604 0.345673 0 0.0600152 0.361953 0 0.0958247 0.357483 0 0.0774382 0.347295 0 0.0804788 0.370287 0 0.100727 0.377695 0 0.149481 0.326382 0 0.135254 0.297603 0 0.124838 0.332331 0 0.113839 0.307345 0 0.132786 0.315613 0 0.154905 0.290562 0 0.187604 0.306202 0 0.174004 0.293091 0 0.158799 0.308911 0 0.173151 0.322123 0 0.195372 0.325491 0 0.133747 0.370966 0 0.1077 0.339825 0 0.131888 0.350206 0 0.115405 0.36065 0 0.154323 0.359774 0 0.152063 0.342977 0 0.176262 0.339134 0 0.172976 0.373465 0 0.177629 0.356071 0 0.0115593 0.416925 0 0.00829273 0.383546 0 0.010198 0.43651 0 0.00837122 0.514406 0 0.00969225 0.493684 0 0.0116063 0.474453 0 0.00861254 0.545471 0 0.033804 0.401404 0 0.048488 0.407317 0 0.0302692 0.380643 0 0.014817 0.40161 0 0.0611271 0.383578 0 0.0671015 0.402519 0 0.0713123 0.420823 0 0.0823038 0.389953 0 0.0906119 0.409839 0 0.0400095 0.425014 0 0.0119806 0.456603 0 0.034354 0.457157 0 0.0538438 0.434366 0 0.0276486 0.437017 0 0.0510706 0.456607 0 0.0763484 0.437222 0 0.090552 0.454434 0 0.06891 0.455108 0 0.0963968 0.428422 0 0.105972 0.396622 0 0.138163 0.39419 0 0.131545 0.413433 0 0.112609 0.414852 0 0.121668 0.385596 0 0.174947 0.410655 0 0.191971 0.380308 0 0.150275 0.410467 0 0.18832 0.397337 0 0.153519 0.379999 0 0.165762 0.394692 0 0.126976 0.47116 0 0.141969 0.437229 0 0.10685 0.444713 0 0.105342 0.466419 0 0.127808 0.454209 0 0.123311 0.432772 0 0.149655 0.45471 0 0.168561 0.469646 0 0.196281 0.443941 0 0.158743 0.427112 0 0.183379 0.458816 0 0.167927 0.446034 0 0.179995 0.429353 0 0.0487685 0.48266 0 0.0470296 0.503786 0 0.0285861 0.498318 0 0.0311778 0.476636 0 0.0977623 0.491819 0 0.0648065 0.475481 0 0.0642004 0.508003 0 0.0746533 0.492523 0 0.0862097 0.475389 0 0.0905446 0.508745 0 0.0308352 0.518672 0 0.0472745 0.528689 0 0.0263814 0.554571 0 0.0191721 0.533028 0 0.0439678 0.546019 0 0.0664604 0.526532 0 0.0813869 0.5451 0 0.0641252 0.550179 0 0.0992952 0.553793 0 0.0863904 0.524442 0 0.113923 0.507404 0 0.132132 0.504975 0 0.116708 0.485922 0 0.141577 0.489644 0 0.16676 0.516038 0 0.1878 0.480468 0 0.150639 0.474865 0 0.164119 0.493697 0 0.150568 0.51297 0 0.180915 0.497012 0 0.103991 0.535424 0 0.115836 0.563273 0 0.136514 0.530498 0 0.126818 0.548312 0 0.117257 0.525435 0 0.142689 0.554674 0 0.179604 0.539656 0 0.154338 0.53565 0 0.185472 0.523211 0 0.19318 0.557137 0 0.166599 0.550822 0 0.200779 0.209025 0 0.226091 0.236515 0 0.204825 0.228604 0 0.219748 0.21021 0 0.237115 0.221379 0 0.238707 0.201972 0 0.256071 0.22278 0 0.281964 0.220378 0 0.280811 0.236245 0 0.264027 0.208594 0 0.220794 0.266828 0 0.236577 0.258324 0 0.234411 0.283225 0 0.213269 0.247381 0 0.201484 0.269876 0 0.263902 0.245334 0 0.26764 0.267282 0 0.248193 0.244348 0 0.281395 0.279427 0 0.253079 0.272975 0 0.286062 0.256846 0 0.294181 0.202624 0 0.301957 0.241962 0 0.303209 0.219466 0 0.317082 0.239568 0 0.315275 0.199828 0 0.323931 0.220866 0 0.373346 0.205614 0 0.334543 0.202933 0 0.368649 0.240775 0 0.343175 0.225881 0 0.35325 0.202416 0 0.362007 0.223567 0 0.301189 0.267235 0 0.318954 0.263742 0 0.333045 0.259878 0 0.302256 0.286569 0 0.355586 0.257332 0 0.341529 0.242242 0 0.365306 0.280093 0 0.343831 0.277843 0 0.372494 0.26163 0 0.19757 0.290716 0 0.210248 0.312193 0 0.232223 0.326866 0 0.216463 0.289975 0 0.227902 0.306895 0 0.267934 0.29791 0 0.255835 0.332146 0 0.270409 0.318391 0 0.248609 0.313076 0 0.25024 0.293731 0 0.286439 0.300428 0 0.213591 0.334541 0 0.219377 0.355903 0 0.235579 0.344993 0 0.20238 0.36599 0 0.239085 0.369217 0 0.221737 0.377319 0 0.197685 0.347529 0 0.275976 0.35
[...]
   <PointData  Vectors="vector">
    <DataArray Name="SortedParticle_ID" type="Int32" Format="ascii">
    0 1 2 3 4 5 6 7 8 9 10 11 12 13 14 15 16 17 18 19 20 21 22 23 24 25 26 27 28 29 30 31 32 33 34 35 36 37 38 39 40 41 42 43 44 45 46 47 48 49 50 51 52 53 54 55 56 57 58 59 60 61 62 63 64 65 66 67 68 69 70 71 72 73 74 75 76 77 78 79 80 81 82 83 84 85 86 87 88 89 90 91 92 93 94 95 96 97 98 99 100 101 102 103 104 105 106 107 108 109 110 111 112 113 114 115 116 117 118 119 120 121 122 123 124 125 126 127 128 129 130 131 132 133 134 135 136 137 138 139 140 141 142 143 144 145 146 147 148 149 150 151 152 153 154 155 156 157 158 159 160 161 162 163 164 165 166 167 168 169 170 171 172 173 174 175 176 177 178 179 180 181 182 183 184 185 186 187 188 189 190 191 192 193 194 195 196 197 198 199 200 201 202 203 204 205 206 207 208 209 210 211 212 213 214 215 216 217 218 219 220 221 222 223 224 225 226 227 228 229 230 231 232 233 234 235 236 237 238 239 240 241 242 243 244 245 246 247 248 249 250 251 252 253 254 255 256 257 258 259 260 261 262 263 264 265 266 267 268 269 270 271 272 273 274 275 276 277 278 279 280 281 282 283 284 285 286 287 288 289 290 291 292 293 294 295 296 297 298 299 300 301 302 303 304 305 306 307 308 309 310 311 312 313 314 315 316 317 318 319 320 321 322 323 324 325 326 327 328 329 330 331 332 333 334 335 336 337 338 339 340 341 342 343 344 345 346 347 348 349 350 351 352 353 354 355 356 357 358 359 360 361 362 363 364 365 366 367 368 369 370 371 372 373 374 375 376 377 378 379 380 381 382 383 384 385 386 387 388 389 390 391 392 393 394 395 396 397 398 399 400 401 402 403 404 405 406 407 408 409 410 411 412 413 414 415 416 417 418 419 420 421 422 423 424 425 426 427 428 429 430 431 432 433 434 435 436 437 438 439 440 441 442 443 444 445 446 447 448 449 450 451 452 453 454 455 456 457 458 459 460 461 462 463 464 465 466 467 468 469 470 471 472 473 474 475 476 477 478 479 480 481 482 483 484 485 486 487 488 489 490 491 492 493 494 495 496 497 498 499 500 501 502 503 504 505 506 507 508 509 510 511 512 513 514 515 516 517 518 519 520 521 522 523 524 525 526 527 528 529 530 531 532 533 534 535 536 537 538 539 540 541 542 543 544 545 546 547 548 549 550 551 552 553 554 555 556 557 558 559 560 561 562 563 564 565 566 567 568 569 570 571 572 573 574 575 576 577 578 579 580 581 582 583 584 585 586 587 588 589 590 591 592 593 594 595 596 597 598 599 600 601 602 603 604 605 606 607 608 609 610 611 612 613 614 615 616 617 618 619 620 621 622 623 624 625 626 627 628 629 630 631 632 633 634 635 636 637 638 639 640 641 642 643 644 645 646 647 648 649 650 651 652 653 654 655 656 657 658 659 660 661 662 663 664 665 666 667 668 669 670 671 672 673 674 675 676 677 678 679 680 681 682 683 684 685 686 687 688 689 690 691 692 693 694 695 696 697 698 699 700 701 702 703 704 705 706 707 708 709 710 711 712 713 714 715 716 717 718 719 720 721 722 723 724 725 726 727 728 729 730 731 732 733 734 735 736 737 738 739 740 741 742 743 744 745 746 747 748 749 750 751 752 753 754 755 756 757 758 759 760 761 762 763 764 765 766 767 768 769 770 771 772 773 774 775 776 777 778 779 780 781 782 783 784 785 786 787 788 789 790 791 792 793 794 795 796 797 798 799 800 801 802 803 804 805 806 807 808 809 810 811 812 813 814 815 816 817 818 819 820 821 822 823 824 825 826 827 828 829 830 831 832 833 834 835 836 837 838 839 840 841 842 843 844 845 846 847 848 849 850 851 852 853 854 855 856 857 858 859 860 861 862 863 864 865 866 867 868 869 870 871 872 873 874 875 876 877 878 879 880 881 882 883 884 885 886 887 888 889 890 891 892 893 894 895 896 897 898 899 900 901 902 903 904 905 906 907 908 909 910 911 912 913 914 915 916 917 918 919 920 921 922 923 924 925 926 927 928 929 930 931 932 933 934 935 936 937 938 939 940 941 942 943 944 945 946 947 948 949 950 951 952 953 954 955 956 957 958 959 960 961 962 963 964 965 966 967 968 969 970 971 972 973 974 975 976 977 978 979 980 981 982 983 984 985 986 987 988 989 990 991 992 993 994 995 996 997 998 999 1000 1001 1002 1003 1004 1005 1006 1007 1008 1009 1010 1011 1012 1013 1014 1015 1016 1017 1018 1019 1020 1021 1022 1023 1024 1025 1026 1027 1028 1029 1030 1031 1032 1033 1034 1035 1036 1037 1038 1039 1040 1041 1042 1043 1044 1045 1046 1047 1048 1049 1050 1051 1052 1053 1054 1055 1056 1057 1058 1059 1060 1061 1062 1063 1064 1065 1066 1067 1068 1069 1070 1071 1072 1073 1074 1075 1076 1077 1078 1079 1080 1081 1082 1083 1084 1085 1086 1087 1088 1089 1090 1091 1092 1093 1094 1095 1096 1097 1098 1099 1100 1101 1102 1103 1104 1105 1106 1107 1108 1109 1110 1111 1112 1113 1114 1115 1116 1117 1118 1119 1120 1121 1122 1123 1124 1125 1126 1127 1128 1129 1130 1131 1132 1133 1134 1135 1136 1137 1138 1139 1140 1141 1142 1143 1144 1145 1146 1147 1148 1149 1150 1151 1152 1153 1154 1155 1156 1157 1158 1159 1160 1161 1162 1163 1164 1165 1166 1167 1168 1169 1170 1171 1172 1173 1174 1175 1176 1177 1178 1179 1180 1181 1182 1183 1184 1185 1186 1187 1188 1189 1190 1191 1192 1193 1194 1195 1196 1197 1198 1199 1200 1201 1202 1203 1204 1205 1206 1207 1208 1209 1210 1211 1212 1213 1214 1215 1216 1217 1218 1219 1220 1221 1222 1223 1224 1225 1226 1227 1228 1229 1230 1231 1232 1233 1234 1235 1236 1237 1238 1239 1240 1241 1242 1243 1244 1245 1246 1247 1248 1249 1250 1251 1252 1253 1254 1255 1256 1257 1258 1259 1260 1261 1262 1263 1264 1265 1266 1267 1268 1269 1270 1271 1272 1273 1274 1275 1276 1277 1278 1279 1280 1281 1282 1283 1284 1285 1286 1287 1288 1289 1290 1291 1292 1293 1294 1295 1296 1297 1298 1299 1300 1301 1302 1303 1304 1305 1306 1307 1308 1309 1310 1311 1312 1313 1314 1315 1316 1317 1318 1319 1320 1321 1322 1323 1324 1325 1326 1327 1328 1329 1330 1331 1332 1333 1334 1335 1336 1337 1338 1339 1340 1341 1342 1343 1344 1345 1346 1347 1348 1349 1350 1351 1352 1353 1354 1355 1356 1357 1358 1359 1360 1361 1362 1363 1364 1365 1366 1367 1368 1369 1370 1371 1372 1373 1374 1375 1376 1377 1378 1379 1380 1381 1382 1383 1384 1385 1386 1387 1388 1389 1390 1391 1392 1393 1394 1395 1396 1397 1398 1399 1400 1401 1402 1403 1404 1405 1406 1407 1408 1409 1410 1411 1412 1413 1414 1415 1416 1417 1418 1419 1420 1421 1422 1423 1424 1425 1426 1427 1428 1429 1430 1431 1432 1433 1434 1435 1436 1437 1438 1439 1440 1441 1442 1443 1444 1445 1446 1447 1448 1449 1450 1451 1452 1453 1454 1455 1456 1457 1458 1459 1460 1461 1462 1463 1464 1465 1466 1467 1468 1469 1470 1471 1472 1473 1474 1475 1476 1477 1478 1479 1480 1481 1482 1483 1484 1485 1486 1487 1488 1489 1490 1491 1492 1493 1494 1495 1496 1497 1498 1499 1500 1501 1502 1503 1504 1505 1506 1507 1508 1509 1510 1511 1512 1513 1514 1515 1516 1517 1518 1519 1520 1521 1522 1523 1524 1525 1526 1527 1528 1529 1530 1531 1532 1533 1534 1535 1536 1537 1538 1539 1540 1541 1542 1543 1544 1545 1546 1547 1548 1549 1550 1551 1552 1553 1554 1555 1556 1557 1558 1559 1560 1561 1562 1563 1564 1565 1566 1567 1568 1569 1570 1571 1572 1573 1574 1575 1576 1577 1578 1579 1580 1581 1582 1583 1584 1585 1586 1587 1588 1589 1590 1591 1592 1593 1594 1595 1596 1597 1598 1599 1600 1601 1602 1603 1604 1605 1606 1607 1608 1609 1610 1611 1612 1613 1614 1615 1616 1617 1618 1619 1620 1621 1622 1623 1624 1625 1626 1627 1628 1629 1630 1631 1632 1633 1634 1635 1636 1637 1638 1639 1640 1641 1642 1643 1644 1645 1646 1647 1648 1649 1650 1651 1652 1653 1654 1655 1656 1657 1658 1659 1660 1661 1662 1663 1664 1665 1666 1667 1668 1669 1670 1671 1672 1673 1674 1675 1676 1677 1678 1679 1680 1681 1682 1683 1684 1685 1686 1687 1688 1689 1690 1691 1692 1693 1694 1695 1696 1697 1698 1699 1700 1701 1702 1703 1704 1705 1706 1707 1708 1709 1710 1711 1712 1713 1714 1715 1716 1717 1718 1719 1720 1721 1722 1723 1724 1725 1726 1727 1728 1729 1730 1731 1732 1733 1734 1735 1736 1737 1738 1739 1740 1741 1742 1743 1744 1745 1746 1747 1748 1749 1750 1751 1752 1753 1754 1755 1756 1757 1758 1759 1760 1761 1762 1763 1764 1765 1766 1767 1768 1769 1770 1771 1772 1773 1774 1775 1776 1777 1778 1779 1780 1781 1782 1783 1784 1785 1786 1787 1788 1789 1790 1791 1792 1793 1794 1795 1796 1797 1798 1799 1800 1801 1802 1803 1804 1805 1806 1807 1808 1809 1810 1811 1812 1813 1814 1815 1816 1817 1818 1819 1820 1821 1822 1823 1824 1825 1826 1827 1828 1829 1830 1831 1832 1833 1834 1835 1836 1837 1838 1839 1840 1841 1842 1843 1844 1845 1846 1847 1848 1849 1850 1851 1852 1853 1854 1855 1856 1857 1858 1859 1860 1861 1862 1863 1864 1865 1866 1867 1868 1869 1870 1871 1872 1873 1874 1875 1876 1877 1878 1879 1880 1881 1882 1883 1884 1885 1886 1887 1888 1889 1890 1891 1892 1893 1894 1895 1896 1897 1898 1899 1900 1901 1902 1903 1904 1905 1906 1907 1908 1909 1910 1911 1912 1913 1914 1915 1916 1917 1918 1919 1920 1921 1922 1923 1924 1925 1926 1927 1928 1929 1930 1931 1932 1933 1934 1935 1936 1937 1938 1939 1940 1941 1942 1943 1944 1945 1946 1947 1948 1949 1950 1951 1952 1953 1954 1955 1956 1957 1958 1959 1960 1961 1962 1963 1964 1965 1966 1967 1968 1969 1970 1971 1972 1973 1974 1975 1976 1977 1978 1979 1980 1981 1982 1983 1984 1985 1986 1987 1988 1989 1990 1991 1992 1993 1994 1995 1996 1997 1998 1999 2000 2001 2002 2003 2004 2005 2006 2007 2008 2009 2010 2011 2012 2013 2014 2015 2016 2017 2018 2019 2020 2021 2022 2023 2024 2025 2026 2027 2028 2029 2030 2031 2032 2033 2034 2035 2036 2037 2038 2039 2040 2041 2042 2043 2044 2045 2046 2047 2048 2049 2050 2051 2052 2053 2054 2055 2056 2057 2058 2059 2060 2061 2062 2063 2064 2065 2066 2067 2068 2069 2070 2071 2072 2073 2074 2075 2076 2077 2078 2079 2080 2081 2082 2083 2084 2085 2086 2087 2088 2089 2090 2091 2092 2093 2094 2095 2096 2097 2098 2099 2100 2101 2102 2103 2104 2105 2106 2107 2108 2109 2110 2111 2112 2113 2114 2115 2116 2117 2118 2119 2120 
    </DataArray>
    <DataArray Name="OriginalID" type="Int32" Format="ascii">
    7 43 79 151 115 187 223 259 331 295 1 0 2 3 4 5 6 22 1889 73 37 36 72 144 108 145 109 39 74 38 75 111 146 147 110 217 181 216 180 289 324 253 288 325 252 182 219 183 218 327 326 290 255 291 254 76 40 41 77 78 42 149 148 114 113 150 112 418 412 316 532 2008 1837 1920 733 926 222 221 220 185 186 184 329 328 292 294 258 257 330 293 256 333 553 2036 634 1969 1182 556 570 1003 367 403 439 475 547 583 511 655 619 691 727 799 835 763 907 871 943 979 361 397 360 396 469 432 433 468 362 398 399 363 470 434 435 471 540 577 576 505 541 504 612 648 613 649 506 542 543 507 579 578 615 614 651 650 364 401 400 366 402 365 472 437 436 473 438 474 2012 407 2003 671 1353 697 1859 1265 1881 565 580 509 508 544 546 545 581 510 582 652 616 653 654 617 618 1104 526 1952 1891 464 600 808 1197 721 720 684 685 828 793 757 792 829 756 687 686 722 723 759 831 795 794 830 758 900 865 864 901 936 972 973 937 903 902 867 866 975 939 974 938 688 689 724 726 725 690 796 834 760 832 833 761 797 762 798 802 1200 1925 2087 534 2115 551 640 595 905 906 870 869 868 904 978 941 940 976 942 977 490 1017 525 1984 728 1956 518 804 620 1178 1940 425 1517 1433 89 2270 456 234 30 1427 230 207 392 417 1953 262 340 826 15 1466 1261 171 299 67 244 203 1944 1929 424 658 2007 264 224 1062 914 229 9 141 116 1935 266 332 2005 117 2116 2060 1406 2106 57 134 302 1236 353 206 133 44 1905 130 2027 314 346 90 126 160 64 199 303 96 352 228 321 274 237 273 14 458 389 153 35 124 70 137 179 59 194 1821 233 195 1787 1404 492 45 86 300 448 105 2166 317 178 193 1971 92 159 357 338 1435 10 359 19 102 269 1758 11 1669 54 143 177 32 18 118 94 1902 1918 49 87 158 21 62 136 31 197 2089 131 58 122 91 53 104 128 1710 892 318 311 322 385 1739 270 462 1867 82 307 188 268 276 454 2101 494 429 34 337 1910 60 495 155 23 1998 1745 162 393 1591 1977 2260 176 354 486 265 12 99 1870 764 538 419 608 573 989 730 1175 1140 609 1873 1177 251 1483 1966 373 1963 2059 421 1985 2054 768 1068 1144 625 512 478 480 1024 838 878 666 729 1780 356 1022 836 662 770 586 909 734 1368 238 283 261 214 375 1377 1387 239 320 1937 275 1854 2057 282 2074 271 200 1904 198 2058 213 1746 358 422 414 101 803 606 1189 2103 659 298 451 2091 394 152 423 1307 487 1877 372 630 457 610 593 479 623 633 589 1972 622 669 594 661 590 707 699 657 1256 663 668 632 624 1243 1540 2019 1299 1340 1866 844 514 815 837 592 773 708 969 968 703 873 695 587 585 736 1000 1179 738 627 629 626 1341 667 1199 706 1349 677 813 1320 631 1030 1289 714 1190 1231 1101 862 1142 1254 1277 1037 710 554 672 1103 705 567 1217 891 779 674 2253 591 1221 644 628 1861 248 447 24 285 232 204 210 33 81 139 83 17 2104 46 277 88 16 1930 121 156 2150 174 164 1793 2119 1608 341 135 80 1965 167 106 97 196 313 2170 211 395 380 1766 379 806 2159 201 52 205 123 235 125 154 138 85 51 26 48 56 119 61 241 2002 47 55 95 413 202 100 227 240 377 742 161 1964 1705 2157 1732 50 1954 2133 1990 170 1868 140 1721 315 769 1141 771 700 709 665 1259 702 1255 1032 701 713 1921 552 747 1108 745 1329 777 861 1070 752 1223 1066 1298 810 740 809 952 1287 1535 1475 1091 1028 2153 946 811 849 781 1250 1211 1054 881 846 1279 1311 1147 698 1288 931 1278 1508 863 1185 932 647 2145 381 743 1272 1386 746 883 807 879 1067 1266 1496 1216 1232 916 1031 783 1079 1233 1396 852 1245 780 848 461 715 997 753 819 919 1738 820 1267 748 1015 1051 1159 1123 1087 1045 1009 1044 1008 1116 1080 1152 1081 1153 1117 1011 1010 1046 1047 1154 1118 1155 1083 1119 1082 1013 1014 1049 1048 1012 1050 1121 1157 1085 1084 1120 1156 1158 1086 1122 502 601 2001 2061 1864 1897 1219 675 1033 912 1885 735 741 670 1882 1164 1595 1915 947 1092 1055 1838 1950 2275 1344 1094 1057 874 1383 1744 1128 1605 1176 839 877 1093 1168 1053 1127 1286 2213 1629 911 1370 1736 948 1126 1922 1098 2053 1059 1130 2245 1019 1088 984 1264 1658 1543 1061 876 1090 1095 1756 1242 1136 1125 1939 1525 1165 1768 2138 1170 1135 1951 1326 1375 858 1205 785 817 1065 1686 2264 986 1056 965 1441 993 1064 933 918 784 1248 1029 1020 983 1431 1270 2272 1096 1646 1207 1132 1163 1485 1026 1174 1573 1728 1424 1021 1550 1322 895 1798 897 1186 1476 1432 1319 1275 1464 1345 1741 1514 1600 1665 1547 1343 1581 1621 1378 1443 1653 1413 1523 1457 1624 1534 1782 2276 1579 1511 1760 1541 1479 1491 1162 1570 1407 1709 1631 1769 1129 1594 1645 1811 1533 1500 1666 1133 985 1803 1679 1604 1680 1691 1097 1578 1637 1743 1572 1598 2273 1567 1478 1695 1668 1795 1568 376 1720 1052 1702 2258 1671 1590 1848 1681 1644 1789 1716 1779 1824 1592 1566 2268 1297 1321 355 1330 1296 1962 2046 305 491 189 1039 1115 279 2269 29 13 452 1775 923 850 2038 1675 281 467 312 1731 1771 1812 172 527 68 308 309 208 387 1958 306 1660 859 430 465 345 2056 1924 66 2248 2184 1507 1753 2073 1240 1538 1246 98 893 1995 2259 348 1430 1639 2171 190 488 1901 1943 246 1723 297 63 1001 2090 65 889 1690 2100 1300 2050 1180 485 2203 2164 169 1994 129 25 2135 166 20 349 1806 249 173 226 1820 132 339 493 2125 382 450 231 2136 120 1933 27 415 386 1890 28 301 2158 212 2023 93 351 2137 286 1871 142 323 165 191 489 347 411 679 1257 284 84 1338 71 247 1384 991 1385 1722 1339 712 1805 2265 1664 967 1829 1069 1562 1844 1687 236 1241 1928 1310 1208 263 774 1318 683 1194 1757 416 455 1309 1635 646 1107 374 787 342 1992 778 641 215 814 1252 483 744 1244 776 882 1213 680 431 818 717 1276 1301 1555 1258 786 1036 1005 996 1215 962 854 851 1188 336 1076 1114 459 1262 1151 1075 1187 69 887 428 682 789 1202 267 1004 1942 1212 296 1408 790 884 1027 8 1932 1225 718 1284 1072 1073 1312 1729 2024 1042 1201 935 1280 1218 929 755 1071 857 1247 1260 920 885 788 1206 1181 827 1112 1222 1374 749 1198 1193 1676 955 1077 1888 896 1171 1324 1058 1274 1283 1509 2255 719 886 1184 1352 925 1350 1486 1294 1209 898 930 1303 1146 1510 1991 971 1606 1191 954 1993 970 1619 1906 1505 1235 390 1111 453 998 1227 999 1292 1196 1419 1450 961 1498 1420 1195 992 1160 1251 791 921 1214 888 1518 1497 1148 1149 958 860 1192 960 927 1365 1038 963 1452 1354 1224 1043 1366 1007 1394 1150 1531 1717 1448 1422 1400 1204 924 934 1488 1474 1295 1423 1249 1323 1447 856 1395 1228 1041 964 1034 1718 928 1454 1453 956 1074 1539 966 1458 1651 1403 1109 1388 1529 1362 1355 1333 1334 1402 1530 1399 1239 1405 1078 1281 1552 388 1415 1389 1436 1369 1549 1357 1449 1337 1673 1708 1569 1446 1421 1560 1363 1425 1470 1503 1393 1410 1482 1501 1707 1526 1706 1314 1652 1672 1544 1613 1576 1563 1548 1643 1524 1610 1575 1504 1574 1545 103 1346 1325 1522 1348 1462 1429 1617 1455 163 1253 1409 1414 1625 1471 1367 409 1418 1819 1670 1364 1463 1392 1830 1661 1557 1356 1490 1527 1382 1444 391 1900 1851 1692 1683 2277 1703 1642 1655 1492 1719 1360 1416 460 1512 1477 343 1647 1513 1391 319 1473 1737 1437 1778 384 1304 1484 1390 1694 1633 1713 1596 225 1358 449 1565 2025 1626 1461 1599 1616 1580 1632 1611 378 350 1542 1411 420 1499 1749 1494 1282 1439 1628 1843 1417 1412 1335 1381 1650 1472 1438 1426 1506 1528 192 1481 1623 1615 1640 1648 1546 1609 1602 1715 1733 2256 1914 1831 1688 1791 1725 304 1627 1850 1649 2257 2251 1846 242 1840 2254 1677 1842 1761 2238 2185 2232 1786 2221 2244 2197 2243 2209 1790 1975 2233 2177 1785 2055 2097 2182 500 2139 1750 2231 2218 2236 2237 2235 1131 2234 463 1804 1800 1774 335 2239 2070 2180 1735 563 1936 2210 2193 1023 2192 2123 1883 1858 2127 597 2017 1124 406 2043 1102 1987 564 2079 1603 2222 1638 1593 1714 1788 1551 1839 1698 1818 1797 1493 1428 272 1588 2274 1748 1654 175 1583 1764 2240 1682 1828 1614 1872 1773 1742 1917 1724 1835 1834 1814 2263 1577 1585 1586 1957 1759 2230 1657 1689 1810 310 1589 2075 1809 1607 1636 127 1823 1582 1847 245 1459 1553 1556 1601 1587 1656 1641 1659 1755 1752 2262 280 2261 1765 1532 1727 383 1684 344 1597 1630 1825 529 243 2227 2082 2216 168 1973 2142 1833 2242 2155 1841 1770 1853 1822 1730 2028 1801 2191 2196 1754 2241 1726 1813 2247 1704 1979 157 1767 2250 1796 2214 250 1712 1763 2271 1612 1700 1898 1776 1808 1697 1747 2252 1781 1667 1976 2266 1857 1927 107 1832 1468 1751 1711 1536 2267 466 2229 1899 1674 1734 2188 496 209 2228 2205 1836 2199 1762 1561 1693 2201 1740 988 2129 2207 1169 334 1874 2212 1699 949 287 2160 1783 1845 1849 2246 278 2179 531 2181 2121 910 2088 2120 1060 1138 1886 2225 2206 1816 2200 1018 2149 1792 2029 2154 2175 2146 2131 2026 1678 2249 426 2114 2147 1772 427 2126 1784 1701 2128 2174 1982 1947 2190 1794 2000 410 1807 2165 2226 1826 2219 1777 2161 2215 1856 2085 1089 2211 944 2220 2162 915 1948 1361 1025 2004 405 1926 1166 2208 2189 2173 1799 2204 2186 875 982 1875 2224 2217 1802 1855 2113 1827 1815 2156 2194 2169 2099 2198 2172 2183 1960 1852 2187 2084 693 2163 2223 2098 2072 913 2111 1919 1139 2096 2112 2132 2037 2083 1903 2202 2141 2152 2020 2032 908 2021 1945 1978 1988 2130 2006 2033 731 2143 2124 2016 2178 1996 1961 1986 2068 2081 2148 501 951 2047 2109 1880 2014 2144 2048 987 1100 2086 1865 370 1878 2035 2168 2195 800 2134 2151 2077 2044 2064 980 2015 1137 1869 639 2052 408 1934 521 2010 1161 2118 2117 2107 1916 1999 446 872 1912 621 1884 2069 676 571 694 767 1908 841 443 520 611 643 555 2045 2076 2051 1955 637 1895 562 843 2034 599 2042 519 584 1099 1949 1167 596 1974 2071 1931 1863 1989 945 2066 1876 497 575 607 484 1172 1331 2093 558 369 1967 2108 766 2013 523 560 528 1173 561 636 476 566 1997 498 441 656 522 2031 513 404 568 1860 1981 1063 635 1911 2092 1016 1887 533 2102 842 1134 605 598 2009 2067 557 1913 548 499 530 574 482 549 1893 539 477 1938 2122 1862 1892 517 1105 645 981 2140 801 481 1894 536 2065 572 537 569 2049 1980 1909 2018 1968 1923 2041 445 371 1879 1959 2095 2105 2110 1896 2078 2022 765 2062 503 1983 2167 442 2176 368 2040 2030 260 
    </DataArray>
    <DataArray Name="Density" type="Float32" Format="ascii">