<?xml version="1.0"?>
<VTKFile type="PolyData" version="0.1" byte_order="LittleEndian">
 <PolyData>
  <Piece Name ="WaterBlock" NumberOfPoints="2023" NumberOfVerts="2023">
   <Points>
    <DataArray Name="Position" type="Float32"  NumberOfComponents="3" Format="ascii">
    0.01 0.00608551 0 0.05 0.00608551 0 0.03 0.00608551 0 0.09 0.00608551 0 0.07 0.00608551 0 0.11 0.00608551 0 0.13 0.00608551 0 0.15 0.00608551 0 0.19 0.00608551 0 0.17 0.00608551 0 0.01 0.0260855 0 0.01 0.0460855 0 0.01 0.0860855 0 0.01 0.0660855 0 0.01 0.106086 0 0.01 0.146086 0 0.01 0.126086 0 0.00786619 0.176736 0 0.03 0.0260855 0 0.05 0.0260855 0 0.03 0.0460855 0 0.05 0.0460855 0 0.09 0.0260855 0 0.07 0.0260855 0 0.07 0.0460855 0 0.09 0.0460855 0 0.05 0.0860855 0 0.03 0.0660855 0 0.03 0.0860855 0 0.05 0.0660855 0 0.09 0.0660855 0 0.07 0.0660855 0 0.07 0.0860855 0 0.09 0.0860855 0 0.11 0.0260855 0 0.13 0.0260855 0 0.11 0.0460855 0 0.13 0.0460855 0 0.15 0.0260855 0 0.17 0.0460855 0 0.15 0.0460855 0 0.19 0.0460855 0 0.17 0.0260855 0 0.19 0.0260855 0 0.13 0.0660855 0 0.13 0.0860855 0 0.11 0.0860855 0 0.11 0.0660855 0 0.17 0.0660855 0 0.15 0.0860855 0 0.17 0.0860855 0 0.19 0.0860855 0 0.15 0.0660855 0 0.19 0.0660855 0 0.03 0.106086 0 0.05 0.146086 0 0.05 0.106086 0 0.03 0.126086 0 0.03 0.146086 0 0.05 0.126086 0 0.07 0.126086 0 0.09 0.106086 0 0.07 0.106086 0 0.09 0.146086 0 0.09 0.126086 0 0.07 0.146086 0 0.0521502 0.184507 0 0.0307069 0.186191 0 0.0191079 0.163214 0 0.0383662 0.167589 0 0.0591449 0.163368 0 0.0709932 0.193117 0 0.0966429 0.18596 0 0.0738609 0.175562 0 0.0885846 0.162771 0 0.13 0.126086 0 0.13 0.106086 0 0.11 0.106086 0 0.11 0.126086 0 0.11 0.146086 0 0.13 0.146086 0 0.15 0.106086 0 0.19 0.106086 0 0.17 0.106086 0 0.19 0.146086 0 0.15 0.126086 0 0.17 0.126086 0 0.15 0.146086 0 0.17 0.146086 0 0.19 0.126086 0 0.123097 0.186231 0 0.123101 0.16291 0 0.140411 0.177929 0 0.106888 0.172226 0 0.150485 0.163435 0 0.151026 0.195689 0 0.175698 0.164952 0 0.164842 0.179942 0 0.194052 0.16674 0 0.184669 0.188994 0 0.21 0.00608551 0 0.23 0.00608551 0 0.25 0.00608551 0 0.27 0.00608551 0 0.33 0.00608551 0 0.31 0.00608551 0 0.29 0.00608551 0 0.37 0.00608551 0 0.35 0.00608551 0 0.39 0.00608551 0 0.41 0.00608551 0 0.47 0.00608551 0 0.45 0.00608551 0 0.43 0.00608551 0 0.51 0.00608551 0 0.49 0.00608551 0 0.53 0.00608551 0 0.55 0.00608551 0 0.23 0.0260855 0 0.21 0.0460855 0 0.21 0.0260855 0 0.23 0.0460855 0 0.25 0.0260855 0 0.27 0.0260855 0 0.25 0.0460855 0 0.27 0.0460855 0 0.21 0.0660855 0 0.23 0.0860855 0 0.23 0.0660855 0 0.21 0.0860855 0 0.25 0.0660855 0 0.25 0.0860855 0 0.27 0.0660855 0 0.27 0.0860855 0 0.31 0.0460855 0 0.31 0.0260855 0 0.29 0.0260855 0 0.33 0.0260855 0 0.29 0.0460855 0 0.33 0.0460855 0 0.35 0.0260855 0 0.35 0.0460855 0 0.37 0.0460855 0 0.37 0.0260855 0 0.29 0.0860855 0 0.33 0.0660855 0 0.31 0.0660855 0 0.29 0.0660855 0 0.31 0.0860855 0 0.33 0.0860855 0 0.35 0.0860855 0 0.37 0.0660855 0 0.35 0.0660855 0 0.37 0.0860855 0 0.21 0.106086 0 0.23 0.106086 0 0.21 0.146086 0 0.21 0.126086 0 0.23 0.146086 0 0.23 0.126086 0 0.27 0.126086 0 0.27 0.106086 0 0.25 0.126086 0 0.27 0.146086 0 0.25 0.146086 0 0.25 0.106086 0 0.240104 0.185322 0 0.213861 0.165691 0 0.221955 0.189783 0 0.204291 0.185591 0 0.232214 0.166235 0 0.272647 0.16571 0 0.26134 0.184423 0 0.252442 0.165314 0 0.280357 0.187361 0 0.33 0.106086 0 0.29 0.106086 0 0.31 0.106086 0 0.29 0.126086 0 0.29 0.146086 0 0.33 0.146086 0 0.31 0.146086 0 0.33 0.126086 0 0.31 0.126086 0 0.37 0.106086 0 0.37 0.126086 0 0.35 0.126086 0 0.37 0.146086 0 0.35 0.146086 0 0.35 0.106086 0 0.329014 0.167171 0 0.310032 0.165937 0 0.292201 0.166324 0 0.301886 0.186766 0 0.322063 0.189241 0 0.37916 0.185491 0 0.358984 0.185795 0 0.346896 0.165374 0 0.338549 0.188574 0 0.36659 0.165829 0 0.39 0.0260855 0 0.41 0.0260855 0 0.41 0.0460855 0 0.39 0.0460855 0 0.47 0.0460855 0 0.45 0.0460855 0 0.43 0.0460855 0 0.43 0.0260855 0 0.45 0.0260855 0 0.47 0.0260855 0 0.41 0.0660855 0 0.39 0.0860855 0 0.39 0.0660855 0 0.41 0.0860855 0 0.43 0.0860855 0 0.47 0.0660855 0 0.45 0.0860855 0 0.47 0.0860855 0 0.45 0.0660855 0 0.43 0.0660855 0 0.51 0.0260855 0 0.49 0.0460855 0 0.49 0.0260855 0 0.51 0.0460855 0 0.55 0.0260855 0 0.55 0.0460855 0 0.53 0.0460855 0 0.53 0.0260855 0 0.51 0.0660855 0 0.49 0.0660855 0 0.51 0.0860855 0 0.49 0.0860855 0 0.53 0.0660855 0 0.55 0.0860855 0 0.53 0.0860855 0 0.55 0.0660855 0 0.39 0.126086 0 0.39 0.106086 0 0.41 0.146086 0 0.39 0.146086 0 0.41 0.106086 0 0.41 0.126086 0 0.45 0.146086 0 0.47 0.106086 0 0.43 0.146086 0 0.47 0.126086 0 0.43 0.106086 0 0.47 0.146086 0 0.45 0.106086 0 0.45 0.126086 0 0.43 0.126086 0 0.386707 0.165547 0 0.401826 0.184868 0 0.425358 0.166882 0 0.418584 0.1916 0 0.406019 0.165851 0 0.437006 0.186085 0 0.465142 0.165656 0 0.458627 0.183444 0 0.443078 0.165334 0 0.49 0.146086 0 0.49 0.106086 0 0.51 0.106086 0 0.49 0.126086 0 0.51 0.126086 0 0.51 0.146086 0 0.53 0.126086 0 0.53 0.106086 0 0.53 0.146086 0 0.55 0.126086 0 0.55 0.146086 0 0.55 0.106086 0 0.499496 0.185833 0 0.506945 0.167344 0 0.480411 0.184675 0 0.485465 0.163778 0 0.563207 0.163952 0 0.538964 0.18885 0 0.557121 0.185757 0 0.544945 0.168133 0 0.525065 0.164558 0 0.520586 0.186372 0 0.0105242 0.212961 0 0.00893359 0.238041 0 0.0121046 0.19656 0 0.00947956 0.276651 0 0.0107764 0.29475 0 0.00739503 0.329218 0 0.00759183 0.357393 0 0.0435011 0.218405 0 0.0227885 0.226474 0 0.0398426 0.237944 0 0.0358552 0.202835 0 0.0592972 0.206691 0 0.0676138 0.22386 0 0.0898349 0.203387 0 0.0826567 0.24138 0 0.0875829 0.220286 0 0.0614741 0.240168 0 0.0501282 0.277684 0 0.0128498 0.25682 0 0.0315917 0.273849 0 0.0303173 0.252852 0 0.0536019 0.257643 0 0.0891177 0.276264 0 0.0690569 0.264371 0 0.0890996 0.257517 0 0.0752949 0.288166 0 0.104703 0.227959 0 0.134745 0.233598 0 0.148283 0.214691 0 0.131913 0.203643 0 0.121681 0.221894 0 0.109915 0.203555 0 0.176861 0.23996 0 0.19411 0.231772 0 0.172452 0.200928 0 0.156742 0.234771 0 0.19003 0.213467 0 0.168827 0.220604 0 0.106434 0.246797 0 0.145742 0.284595 0 0.131715 0.271368 0 0.106826 0.285149 0 0.112592 0.268144 0 0.124805 0.250916 0 0.14625 0.251584 0 0.15667 0.265106 0 0.173648 0.258433 0 0.182176 0.284191 0 0.190201 0.265157 0 0.164669 0.284632 0 0.034884 0.311369 0 0.0327442 0.291392 0 0.0534682 0.311026 0 0.0145949 0.312187 0 0.0311235 0.329709 0 0.0592114 0.294606 0 0.0663336 0.326546 0 0.101276 0.321106 0 0.09143 0.301656 0 0.0785903 0.312983 0 0.0484508 0.33629 0 0.0254699 0.374606 0 0.037336 0.35509 0 0.0204237 0.347612 0 0.0560522 0.359368 0 0.0415879 0.37879 0 0.087075 0.335956 0 0.0684681 0.346495 0 0.0802443 0.369732 0 0.0639305 0.377187 0 0.0975331 0.379114 0 0.0909049 0.355357 0 0.128847 0.293029 0 0.137881 0.313114 0 0.114141 0.304425 0 0.120729 0.324143 0 0.171605 0.306242 0 0.152678 0.307111 0 0.190908 0.304838 0 0.191112 0.3248 0 0.167826 0.324228 0 0.138178 0.334615 0 0.11175 0.365147 0 0.124221 0.351256 0 0.134221 0.376218 0 0.106971 0.342089 0 0.142649 0.354747 0 0.156232 0.337878 0 0.181147 0.341918 0 0.166636 0.355912 0 0.172808 0.376466 0 0.193326 0.377809 0 0.153696 0.373321 0 0.188863 0.35977 0 0.00762357 0.402721 0 0.0086671 0.381129 0 0.0106779 0.432326 0 0.0102615 0.465891 0 0.0109679 0.49983 0 0.0097283 0.519665 0 0.0104287 0.539744 0 0.0194558 0.418767 0 0.0384175 0.422311 0 0.0280326 0.397139 0 0.0444783 0.403742 0 0.0609882 0.393972 0 0.0791855 0.403215 0 0.0636618 0.416523 0 0.0919084 0.395305 0 0.102944 0.414465 0 0.014591 0.44897 0 0.0406968 0.439722 0 0.033164 0.455877 0 0.0827169 0.426705 0 0.0581484 0.454637 0 0.081778 0.443632 0 0.0746899 0.462234 0 0.1001 0.454675 0 0.0601055 0.433774 0 0.103209 0.432497 0 0.0952046 0.471712 0 0.145808 0.422307 0 0.119842 0.3843 0 0.127557 0.421309 0 0.116188 0.402961 0 0.137104 0.402904 0 0.194983 0.401573 0 0.194137 0.418893 0 0.176634 0.395894 0 0.164657 0.408191 0 0.151453 0.392244 0 0.172327 0.424119 0 0.135596 0.471353 0 0.120362 0.440386 0 0.118791 0.460741 0 0.138434 0.44576 0 0.151152 0.458723 0 0.158335 0.436515 0 0.190266 0.437463 0 0.181517 0.46417 0 0.173103 0.450199 0 0.0389766 0.493677 0 0.0300991 0.507597 0 0.0143735 0.483574 0 0.0521488 0.512102 0 0.0348696 0.474428 0 0.0531802 0.473153 0 0.0947934 0.490929 0 0.0800985 0.504971 0 0.0748766 0.482315 0 0.103639 0.509537 0 0.0610563 0.494401 0 0.0134444 0.557536 0 0.0343225 0.550794 0 0.0454324 0.532001 0 0.0285114 0.530308 0 0.0598504 0.556071 0 0.0633217 0.540501 0 0.0898227 0.525035 0 0.0689011 0.520484 0 0.0842863 0.543593 0 0.0876517 0.560264 0 0.137479 0.490142 0 0.139378 0.509531 0 0.115606 0.480986 0 0.118341 0.500359 0 0.163195 0.510021 0 0.18208 0.503451 0 0.180289 0.483614 0 0.16031 0.474719 0 0.158082 0.492274 0 0.147879 0.551569 0 0.148766 0.527095 0 0.132857 0.540132 0 0.12633 0.559444 0 0.107052 0.549952 0 0.107749 0.532658 0 0.125086 0.522836 0 0.181384 0.563386 0 0.169181 0.528336 0 0.188703 0.524037 0 0.189665 0.543282 0 0.167267 0.547425 0 0.206198 0.206233 0 0.237751 0.206908 0 0.234674 0.23189 0 0.212815 0.234416 0 0.221586 0.215833 0 0.253938 0.22218 0 0.256959 0.203068 0 0.275775 0.210621 0 0.267734 0.236057 0 0.284408 0.227197 0 0.240748 0.267035 0 0.216068 0.266204 0 0.219319 0.285332 0 0.201806 0.285011 0 0.239746 0.284713 0 0.227038 0.251482 0 0.201726 0.251518 0 0.248172 0.245439 0 0.257892 0.285472 0 0.274858 0.273676 0 0.288295 0.284135 0 0.279013 0.250388 0 0.260662 0.260997 0 0.313943 0.208478 0 0.29322 0.203006 0 0.303722 0.226217 0 0.322545 0.228651 0 0.334463 0.210518 0 0.36415 0.227868 0 0.352552 0.207357 0 0.371815 0.202455 0 0.346246 0.229119 0 0.380132 0.240082 0 0.308281 0.282025 0 0.326165 0.246623 0 0.295252 0.262436 0 0.316082 0.262761 0 0.328718 0.282366 0 0.3023 0.245188 0 0.37783 0.276487 0 0.338685 0.264328 0 0.356405 0.270538 0 0.367836 0.25549 0 0.348812 0.246669 0 0.212282 0.324959 0 0.230403 0.306742 0 0.211054 0.30628 0 0.23593 0.325571 0 0.248875 0.306451 0 0.276369 0.329952 0 0.283142 0.310444 0 0.270902 0.300705 0 0.259525 0.322135 0 0.224643 0.342918 0 0.229361 0.361984 0 0.2
[...]
   <PointData  Vectors="vector">
    <DataArray Name="SortedParticle_ID" type="Int32" Format="ascii">
    0 1 2 3 4 5 6 7 8 9 10 11 12 13 14 15 16 17 18 19 20 21 22 23 24 25 26 27 28 29 30 31 32 33 34 35 36 37 38 39 40 41 42 43 44 45 46 47 48 49 50 51 52 53 54 55 56 57 58 59 60 61 62 63 64 65 66 67 68 69 70 71 72 73 74 75 76 77 78 79 80 81 82 83 84 85 86 87 88 89 90 91 92 93 94 95 96 97 98 99 100 101 102 103 104 105 106 107 108 109 110 111 112 113 114 115 116 117 118 119 120 121 122 123 124 125 126 127 128 129 130 131 132 133 134 135 136 137 138 139 140 141 142 143 144 145 146 147 148 149 150 151 152 153 154 155 156 157 158 159 160 161 162 163 164 165 166 167 168 169 170 171 172 173 174 175 176 177 178 179 180 181 182 183 184 185 186 187 188 189 190 191 192 193 194 195 196 197 198 199 200 201 202 203 204 205 206 207 208 209 210 211 212 213 214 215 216 217 218 219 220 221 222 223 224 225 226 227 228 229 230 231 232 233 234 235 236 237 238 239 240 241 242 243 244 245 246 247 248 249 250 251 252 253 254 255 256 257 258 259 260 261 262 263 264 265 266 267 268 269 270 271 272 273 274 275 276 277 278 279 280 281 282 283 284 285 286 287 288 289 290 291 292 293 294 295 296 297 298 299 300 301 302 303 304 305 306 307 308 309 310 311 312 313 314 315 316 317 318 319 320 321 322 323 324 325 326 327 328 329 330 331 332 333 334 335 336 337 338 339 340 341 342 343 344 345 346 347 348 349 350 351 352 353 354 355 356 357 358 359 360 361 362 363 364 365 366 367 368 369 370 371 372 373 374 375 376 377 378 379 380 381 382 383 384 385 386 387 388 389 390 391 392 393 394 395 396 397 398 399 400 401 402 403 404 405 406 407 408 409 410 411 412 413 414 415 416 417 418 419 420 421 422 423 424 425 426 427 428 429 430 431 432 433 434 435 436 437 438 439 440 441 442 443 444 445 446 447 448 449 450 451 452 453 454 455 456 457 458 459 460 461 462 463 464 465 466 467 468 469 470 471 472 473 474 475 476 477 478 479 480 481 482 483 484 485 486 487 488 489 490 491 492 493 494 495 496 497 498 499 500 501 502 503 504 505 506 507 508 509 510 511 512 513 514 515 516 517 518 519 520 521 522 523 524 525 526 527 528 529 530 531 532 533 534 535 536 537 538 539 540 541 542 543 544 545 546 547 548 549 550 551 552 553 554 555 556 557 558 559 560 561 562 563 564 565 566 567 568 569 570 571 572 573 574 575 576 577 578 579 580 581 582 583 584 585 586 587 588 589 590 591 592 593 594 595 596 597 598 599 600 601 602 603 604 605 606 607 608 609 610 611 612 613 614 615 616 617 618 619 620 621 622 623 624 625 626 627 628 629 630 631 632 633 634 635 636 637 638 639 640 641 642 643 644 645 646 647 648 649 650 651 652 653 654 655 656 657 658 659 660 661 662 663 664 665 666 667 668 669 670 671 672 673 674 675 676 677 678 679 680 681 682 683 684 685 686 687 688 689 690 691 692 693 694 695 696 697 698 699 700 701 702 703 704 705 706 707 708 709 710 711 712 713 714 715 716 717 718 719 720 721 722 723 724 725 726 727 728 729 730 731 732 733 734 735 736 737 738 739 740 741 742 743 744 745 746 747 748 749 750 751 752 753 754 755 756 757 758 759 760 761 762 763 764 765 766 767 768 769 770 771 772 773 774 775 776 777 778 779 780 781 782 783 784 785 786 787 788 789 790 791 792 793 794 795 796 797 798 799 800 801 802 803 804 805 806 807 808 809 810 811 812 813 814 815 816 817 818 819 820 821 822 823 824 825 826 827 828 829 830 831 832 833 834 835 836 837 838 839 840 841 842 843 844 845 846 847 848 849 850 851 852 853 854 855 856 857 858 859 860 861 862 863 864 865 866 867 868 869 870 871 872 873 874 875 876 877 878 879 880 881 882 883 884 885 886 887 888 889 890 891 892 893 894 895 896 897 898 899 900 901 902 903 904 905 906 907 908 909 910 911 912 913 914 915 916 917 918 919 920 921 922 923 924 925 926 927 928 929 930 931 932 933 934 935 936 937 938 939 940 941 942 943 944 945 946 947 948 949 950 951 952 953 954 955 956 957 958 959 960 961 962 963 964 965 966 967 968 969 970 971 972 973 974 975 976 977 978 979 980 981 982 983 984 985 986 987 988 989 990 991 992 993 994 995 996 997 998 999 1000 1001 1002 1003 1004 1005 1006 1007 1008 1009 1010 1011 1012 1013 1014 1015 1016 1017 1018 1019 1020 1021 1022 1023 1024 1025 1026 1027 1028 1029 1030 1031 1032 1033 1034 1035 1036 1037 1038 1039 1040 1041 1042 1043 1044 1045 1046 1047 1048 1049 1050 1051 1052 1053 1054 1055 1056 1057 1058 1059 1060 1061 1062 1063 1064 1065 1066 1067 1068 1069 1070 1071 1072 1073 1074 1075 1076 1077 1078 1079 1080 1081 1082 1083 1084 1085 1086 1087 1088 1089 1090 1091 1092 1093 1094 1095 1096 1097 1098 1099 1100 1101 1102 1103 1104 1105 1106 1107 1108 1109 1110 1111 1112 1113 1114 1115 1116 1117 1118 1119 1120 1121 1122 1123 1124 1125 1126 1127 1128 1129 1130 1131 1132 1133 1134 1135 1136 1137 1138 1139 1140 1141 1142 1143 1144 1145 1146 1147 1148 1149 1150 1151 1152 1153 1154 1155 1156 1157 1158 1159 1160 1161 1162 1163 1164 1165 1166 1167 1168 1169 1170 1171 1172 1173 1174 1175 1176 1177 1178 1179 1180 1181 1182 1183 1184 1185 1186 1187 1188 1189 1190 1191 1192 1193 1194 1195 1196 1197 1198 1199 1200 1201 1202 1203 1204 1205 1206 1207 1208 1209 1210 1211 1212 1213 1214 1215 1216 1217 1218 1219 1220 1221 1222 1223 1224 1225 1226 1227 1228 1229 1230 1231 1232 1233 1234 1235 1236 1237 1238 1239 1240 1241 1242 1243 1244 1245 1246 1247 1248 1249 1250 1251 1252 1253 1254 1255 1256 1257 1258 1259 1260 1261 1262 1263 1264 1265 1266 1267 1268 1269 1270 1271 1272 1273 1274 1275 1276 1277 1278 1279 1280 1281 1282 1283 1284 1285 1286 1287 1288 1289 1290 1291 1292 1293 1294 1295 1296 1297 1298 1299 1300 1301 1302 1303 1304 1305 1306 1307 1308 1309 1310 1311 1312 1313 1314 1315 1316 1317 1318 1319 1320 1321 1322 1323 1324 1325 1326 1327 1328 1329 1330 1331 1332 1333 1334 1335 1336 1337 1338 1339 1340 1341 1342 1343 1344 1345 1346 1347 1348 1349 1350 1351 1352 1353 1354 1355 1356 1357 1358 1359 1360 1361 1362 1363 1364 1365 1366 1367 1368 1369 1370 1371 1372 1373 1374 1375 1376 1377 1378 1379 1380 1381 1382 1383 1384 1385 1386 1387 1388 1389 1390 1391 1392 1393 1394 1395 1396 1397 1398 1399 1400 1401 1402 1403 1404 1405 1406 1407 1408 1409 1410 1411 1412 1413 1414 1415 1416 1417 1418 1419 1420 1421 1422 1423 1424 1425 1426 1427 1428 1429 1430 1431 1432 1433 1434 1435 1436 1437 1438 1439 1440 1441 1442 1443 1444 1445 1446 1447 1448 1449 1450 1451 1452 1453 1454 1455 1456 1457 1458 1459 1460 1461 1462 1463 1464 1465 1466 1467 1468 1469 1470 1471 1472 1473 1474 1475 1476 1477 1478 1479 1480 1481 1482 1483 1484 1485 1486 1487 1488 1489 1490 1491 1492 1493 1494 1495 1496 1497 1498 1499 1500 1501 1502 1503 1504 1505 1506 1507 1508 1509 1510 1511 1512 1513 1514 1515 1516 1517 1518 1519 1520 1521 1522 1523 1524 1525 1526 1527 1528 1529 1530 1531 1532 1533 1534 1535 1536 1537 1538 1539 1540 1541 1542 1543 1544 1545 1546 1547 1548 1549 1550 1551 1552 1553 1554 1555 1556 1557 1558 1559 1560 1561 1562 1563 1564 1565 1566 1567 1568 1569 1570 1571 1572 1573 1574 1575 1576 1577 1578 1579 1580 1581 1582 1583 1584 1585 1586 1587 1588 1589 1590 1591 1592 1593 1594 1595 1596 1597 1598 1599 1600 1601 1602 1603 1604 1605 1606 1607 1608 1609 1610 1611 1612 1613 1614 1615 1616 1617 1618 1619 1620 1621 1622 1623 1624 1625 1626 1627 1628 1629 1630 1631 1632 1633 1634 1635 1636 1637 1638 1639 1640 1641 1642 1643 1644 1645 1646 1647 1648 1649 1650 1651 1652 1653 1654 1655 1656 1657 1658 1659 1660 1661 1662 1663 1664 1665 1666 1667 1668 1669 1670 1671 1672 1673 1674 1675 1676 1677 1678 1679 1680 1681 1682 1683 1684 1685 1686 1687 1688 1689 1690 1691 1692 1693 1694 1695 1696 1697 1698 1699 1700 1701 1702 1703 1704 1705 1706 1707 1708 1709 1710 1711 1712 1713 1714 1715 1716 1717 1718 1719 1720 1721 1722 1723 1724 1725 1726 1727 1728 1729 1730 1731 1732 1733 1734 1735 1736 1737 1738 1739 1740 1741 1742 1743 1744 1745 1746 1747 1748 1749 1750 1751 1752 1753 1754 1755 1756 1757 1758 1759 1760 1761 1762 1763 1764 1765 1766 1767 1768 1769 1770 1771 1772 1773 1774 1775 1776 1777 1778 1779 1780 1781 1782 1783 1784 1785 1786 1787 1788 1789 1790 1791 1792 1793 1794 1795 1796 1797 1798 1799 1800 1801 1802 1803 1804 1805 1806 1807 1808 1809 1810 1811 1812 1813 1814 1815 1816 1817 1818 1819 1820 1821 1822 1823 1824 1825 1826 1827 1828 1829 1830 1831 1832 1833 1834 1835 1836 1837 1838 1839 1840 1841 1842 1843 1844 1845 1846 1847 1848 1849 1850 1851 1852 1853 1854 1855 1856 1857 1858 1859 1860 1861 1862 1863 1864 1865 1866 1867 1868 1869 1870 1871 1872 1873 1874 1875 1876 1877 1878 1879 1880 1881 1882 1883 1884 1885 1886 1887 1888 1889 1890 1891 1892 1893 1894 1895 1896 1897 1898 1899 1900 1901 1902 1903 1904 1905 1906 1907 1908 1909 1910 1911 1912 1913 1914 1915 1916 1917 1918 1919 1920 1921 1922 1923 1924 1925 1926 1927 1928 1929 1930 1931 1932 1933 1934 1935 1936 1937 1938 1939 1940 1941 1942 1943 1944 1945 1946 1947 1948 1949 1950 1951 1952 1953 1954 1955 1956 1957 1958 1959 1960 1961 1962 1963 1964 1965 1966 1967 1968 1969 1970 1971 1972 1973 1974 1975 1976 1977 1978 1979 1980 1981 1982 1983 1984 1985 1986 1987 1988 1989 1990 1991 1992 1993 1994 1995 1996 1997 1998 1999 2000 2001 2002 2003 2004 2005 2006 2007 2008 2009 2010 2011 2012 2013 2014 2015 2016 2017 2018 2019 2020 2021 2022 
    </DataArray>
    <DataArray Name="OriginalID" type="Int32" Format="ascii">
    3 75 39 147 111 183 219 255 327 291 4 5 7 6 0 2 1 1958 40 76 41 77 148 112 113 149 79 42 43 78 150 114 115 151 184 220 185 221 256 293 257 329 292 328 222 223 187 186 294 259 295 331 258 330 36 74 72 37 38 73 109 144 108 146 145 110 1971 9 1992 1998 1993 1964 1977 2002 1990 217 216 180 181 182 218 252 324 288 326 253 289 254 290 325 1963 1994 1982 1991 2005 1953 1995 1966 2000 1985 363 399 435 471 579 543 507 651 615 687 723 831 795 759 903 867 939 975 400 365 364 401 436 472 437 473 366 403 402 367 438 439 474 475 545 544 508 580 509 581 616 617 653 652 511 582 546 510 547 583 619 654 618 655 360 396 362 361 398 397 469 468 433 470 434 432 1976 2007 1965 1979 2014 2010 1960 1996 1975 576 504 540 505 506 578 542 577 541 648 649 613 650 614 612 2021 2016 2006 1961 1973 1959 1974 2004 1957 2020 688 724 725 689 833 797 761 760 796 832 726 691 690 727 763 834 799 835 798 762 904 869 868 905 976 977 941 940 906 870 907 871 942 979 943 978 685 684 722 686 720 721 794 828 758 829 756 830 792 793 757 2015 1978 1999 1988 2022 1968 2011 1981 2009 866 864 900 865 901 902 937 936 938 973 974 972 1984 1997 1970 2019 2013 1980 1972 2001 2008 1967 30 64 22 66 67 101 65 62 32 61 28 11 31 1924 24 13 29 57 33 63 92 59 18 55 23 27 19 1905 1921 1937 1906 1933 1904 1928 1954 1935 1943 1930 15 45 1902 20 16 10 1861 1900 1910 1873 1870 1872 97 34 58 69 94 56 54 47 26 60 91 90 89 133 88 124 21 53 52 87 85 25 14 12 17 49 80 8 1890 189 117 46 51 48 84 50 83 44 116 153 118 191 81 154 103 128 100 68 35 105 139 134 70 93 98 126 123 127 86 122 132 96 102 159 95 160 125 195 129 158 196 156 119 121 120 155 228 301 192 193 82 265 303 157 231 194 230 229 266 340 267 164 130 165 166 163 161 234 198 197 235 162 106 173 99 135 137 131 236 199 200 202 268 233 232 271 270 306 305 304 269 274 307 273 238 201 237 272 346 308 344 345 309 1962 1927 1944 1942 1929 1898 1940 1932 1899 1917 1879 1868 188 1871 260 1901 1918 1919 1867 1869 368 1909 1865 1926 1947 1916 1896 1945 1895 1931 1941 1897 1887 1862 1920 1876 1878 548 1880 620 1866 584 1864 1889 225 224 152 261 296 334 333 332 297 262 263 190 226 371 335 298 370 299 1863 369 405 404 440 513 550 476 514 549 479 406 443 441 442 477 551 587 478 515 512 552 1925 1860 1893 1908 1946 1952 1877 1894 1912 1955 728 764 656 1881 692 836 908 729 1858 1859 800 1891 1907 1911 1948 1956 1913 1936 1983 1950 1938 1949 1934 1892 1915 1884 1923 1874 1161 1882 1875 1914 1160 1125 585 657 694 658 621 693 765 872 944 660 659 622 695 586 623 802 873 730 766 767 801 1053 980 1883 1886 1903 1052 1088 1885 1090 1124 1016 910 945 909 946 911 1018 982 1017 981 227 264 373 300 337 409 336 408 372 410 445 407 338 341 302 339 374 448 447 412 411 413 375 481 517 444 480 446 589 553 516 588 484 519 482 483 555 520 591 518 554 556 343 376 378 377 414 342 487 415 449 450 452 380 379 416 381 417 489 455 491 451 454 453 523 521 485 522 559 486 595 593 558 557 560 526 488 525 490 524 598 561 596 562 597 633 626 625 661 624 770 731 768 697 732 696 592 628 662 663 627 590 734 698 700 699 803 837 838 733 804 769 875 874 876 839 840 805 736 735 807 771 806 842 914 877 878 843 841 629 631 665 594 630 702 664 666 773 737 701 667 632 634 669 705 668 741 704 703 670 738 809 772 811 774 845 810 879 808 844 742 776 777 739 775 740 847 778 813 812 848 1047 1011 1155 1083 1119 1048 1013 1012 1049 1085 1120 1121 1084 1156 1157 1051 1015 1014 1050 1159 1087 1086 1122 1123 1158 1009 1008 1010 1046 1044 1045 1080 1153 1081 1117 1118 1154 1082 1116 1152 2012 2003 1986 1969 2018 1987 2017 1172 1989 1167 1922 1163 1951 1939 1131 1174 1129 1171 1173 1130 1888 1169 1170 1162 1133 1094 1168 1099 1100 1132 1164 1166 1165 1092 1128 1089 1175 1134 1055 1135 1093 1054 1126 1127 1091 1138 1056 1058 1057 1136 1095 1097 948 912 947 984 983 1019 1096 985 1098 1176 1020 1137 913 950 949 986 1021 1061 988 1060 1059 1023 917 916 951 915 880 881 953 987 1025 952 1022 989 883 849 846 882 991 1024 954 918 919 990 1102 1063 1140 1139 1026 993 1027 1062 1101 1065 1028 1103 1064 1066 1104 1178 1141 1177 1030 1070 1106 1067 1068 1032 1179 1142 1143 1190 1105 1107 1199 1188 1221 1243 1201 1212 1200 1189 1232 1211 1234 1222 1233 1210 1265 1254 1276 1298 1309 1277 1244 1255 1266 1300 1288 1299 1278 1290 1287 1289 1320 1342 1353 1375 1310 1331 1311 1301 1365 1321 1364 1322 1332 1397 1376 1386 1419 1408 1355 1354 1333 1388 1366 1343 1399 1398 1377 1387 1430 1441 1463 1452 1474 1410 1443 1409 1431 1421 1432 1420 1455 1442 1453 1454 141 71 142 178 213 143 107 177 136 104 140 168 167 169 205 171 204 175 174 138 172 212 170 241 206 207 240 242 276 239 203 275 312 310 348 311 384 347 315 279 278 313 277 314 351 349 350 385 211 249 176 247 210 244 243 245 209 208 215 248 214 179 250 287 286 251 246 283 353 281 280 317 282 316 352 318 320 355 319 285 321 323 357 322 284 359 358 420 382 383 419 418 457 456 492 494 458 493 421 386 422 425 388 423 495 459 460 424 529 528 530 563 527 602 600 565 599 601 564 532 496 497 533 531 567 569 566 603 570 390 426 392 387 354 389 462 463 427 461 395 394 391 356 431 428 430 393 467 429 498 537 464 500 535 499 572 536 534 571 573 465 503 501 466 538 539 502 575 637 673 671 638 636 635 709 706 672 707 708 640 568 605 639 604 675 677 711 713 674 676 744 745 743 781 779 814 780 815 816 817 851 748 710 747 712 746 819 782 784 785 783 820 606 608 607 641 643 678 679 715 680 714 716 642 609 611 574 610 644 681 683 647 646 645 752 749 751 753 750 787 789 790 786 788 718 682 717 719 791 754 825 755 826 885 852 886 850 923 955 920 921 884 887 821 854 818 855 853 925 856 890 888 889 992 922 957 956 958 994 1029 995 996 961 928 927 924 926 959 1037 964 1000 1001 963 960 858 823 822 824 929 891 893 894 857 895 859 827 860 863 861 896 862 898 897 899 966 930 932 967 892 965 1003 1039 1002 968 1004 935 931 934 971 933 1006 1043 969 970 1005 1007 1033 1035 962 1031 997 1144 1181 1069 1071 1108 1036 1072 1034 998 999 1073 1183 1145 1109 1182 1146 1180 1203 1191 1202 1235 1213 1245 1224 1223 1192 1206 1207 1193 1194 1204 1215 1214 1236 1216 1225 1226 1205 1074 1040 1038 1075 1148 1184 1147 1111 1110 1112 1079 1077 1041 1042 1115 1187 1078 1151 1113 1076 1186 1149 1185 1195 1218 1217 1196 1228 1229 1150 1197 1198 1114 1209 1242 1220 1208 1230 1219 1231 1246 1267 1257 1256 1280 1279 1268 1291 1281 1269 1302 1260 1237 1248 1247 1258 1270 1283 1271 1259 1312 1303 1313 1324 1334 1336 1345 1335 1323 1346 1282 1292 1314 1304 1325 1293 1315 1347 1337 1326 1316 1249 1239 1227 1238 1251 1250 1284 1295 1261 1294 1262 1272 1240 1241 1264 1253 1275 1263 1273 1286 1252 1274 1305 1307 1329 1296 1306 1327 1339 1317 1328 1340 1285 1297 1318 1308 1319 1351 1363 1362 1330 1352 1341 1356 1368 1367 1369 1344 1400 1378 1401 1379 1389 1349 1370 1357 1358 1348 1381 1391 1380 1390 1433 1411 1422 1423 1412 1467 1444 1456 1434 1445 1466 1436 1413 1402 1424 1425 1414 1446 1458 1435 1447 1361 1338 1373 1350 1359 1403 1360 1393 1371 1404 1382 1392 1384 1385 1374 1395 1396 1394 1372 1406 1407 1383 1405 1415 1416 1437 1438 1448 1426 1461 1459 1418 1439 1440 1429 1417 1428 1451 1462 1427 1472 1473 1450 1486 1485 1519 1507 1496 1464 1497 1465 1487 1475 1510 1509 1498 1508 1521 1518 1529 1562 1540 1543 1542 1520 1530 1531 1541 1574 1563 1552 1573 1551 1595 1584 1606 1650 1617 1596 1585 1607 1618 1628 1608 1639 1629 1729 1672 1694 1717 1718 1683 1728 1651 1661 1640 1727 1662 1719 1716 1738 1705 1695 1685 1684 1707 1706 1778 1696 1488 1457 1479 1490 1477 1476 1511 1500 1489 1499 1522 1468 1492 1478 1470 1469 1513 1502 1501 1491 1512 1554 1532 1533 1544 1553 1565 1564 1587 1576 1575 1556 1545 1524 1534 1535 1523 1555 1566 1546 1578 1567 1480 1460 1481 1471 1493 1449 1526 1515 1503 1525 1504 1514 1494 1483 1495 1482 1484 1505 1527 1516 1506 1517 1547 1537 1538 1548 1536 1579 1580 1557 1558 1568 1549 1550 1539 1560 1528 1559 1561 1569 1582 1572 1571 1588 1599 1598 1609 1586 1597 1620 1630 1619 1631 1610 1621 1611 1601 1577 1612 1589 1613 1600 1632 1633 1623 1634 1622 1655 1654 1653 1642 1641 1673 1674 1664 1675 1652 1663 1645 1643 1656 1665 1644 1688 1666 1677 1676 1700 1602 1570 1591 1614 1590 1603 1626 1635 1624 1625 1615 1581 1592 1593 1604 1583 1594 1648 1627 1605 1637 1616 1659 1646 1636 1657 1668 1679 1669 1678 1689 1658 1667 1638 1670 1681 1647 1649 1671 1660 1703 1680 1692 1691 1708 1697 1752 1687 1709 1741 1730 1731 1760 1751 1686 1699 1711 1710 1721 1698 1739 1740 1750 1732 1720 1742 1795 1749 1811 1804 1787 1819 1803 1818 1810 1779 1797 1796 1770 1769 1759 1824 1817 1825 1830 1712 1690 1702 1701 1734 1753 1743 1733 1722 1761 1714 1725 1713 1693 1682 1704 1736 1723 1715 1724 1788 1755 1744 1745 1762 1754 1771 1756 1805 1812 1780 1747 1746 1735 1767 1726 1737 1757 1775 1748 1765 1766 1823 1829 1848 1845 1843 1820 1834 1851 1847 1806 1839 1789 1790 1763 1844 1831 1798 1782 1842 1838 1758 1774 1768 1781 1764 1776 1773 1783 1777 1772 1846 1836 1813 1853 1850 1855 1849 1832 1791 1784 1785 1835 1792 1800 1841 1801 1793 1786 1826 1833 1799 1814 1794 1807 1802 1837 1808 1815 1840 1827 1821 1809 1852 1854 1857 1856 1816 1828 1822 
    </DataArray>
    <DataArray Name="Density" type="Float32" Format="ascii">