<?xml version="1.0"?>
<VTKFile type="PolyData" version="0.1" byte_order="LittleEndian">
 <PolyData>
  <Piece Name ="WaterBlock" NumberOfPoints="2089" NumberOfVerts="2089">
   <Points>
    <DataArray Name="Position" type="Float32"  NumberOfComponents="3" Format="ascii">
    0.01 0.014187 0 0.01 0.054187 0 0.01 0.034187 0 0.01 0.094187 0 0.01 0.074187 0 0.01 0.134187 0 0.01 0.114187 0 0.0111866 0.173596 0 0.00935828 0.192942 0 0.01 0.154187 0 0.03 0.034187 0 0.05 0.034187 0 0.05 0.054187 0 0.05 0.014187 0 0.03 0.014187 0 0.03 0.054187 0 0.07 0.034187 0 0.07 0.054187 0 0.09 0.054187 0 0.07 0.014187 0 0.09 0.014187 0 0.09 0.034187 0 0.05 0.074187 0 0.05 0.094187 0 0.03 0.094187 0 0.03 0.074187 0 0.09 0.074187 0 0.09 0.094187 0 0.07 0.074187 0 0.07 0.094187 0 0.11 0.054187 0 0.13 0.034187 0 0.11 0.034187 0 0.11 0.014187 0 0.13 0.014187 0 0.13 0.054187 0 0.15 0.054187 0 0.17 0.054187 0 0.15 0.034187 0 0.19 0.054187 0 0.17 0.034187 0 0.19 0.034187 0 0.15 0.014187 0 0.17 0.014187 0 0.19 0.014187 0 0.11 0.094187 0 0.11 0.074187 0 0.13 0.074187 0 0.13 0.094187 0 0.17 0.074187 0 0.15 0.074187 0 0.19 0.074187 0 0.17 0.094187 0 0.15 0.094187 0 0.19 0.094187 0 0.05 0.134187 0 0.03 0.134187 0 0.05 0.114187 0 0.03 0.114187 0 0.07 0.114187 0 0.09 0.114187 0 0.07 0.134187 0 0.09 0.134187 0 0.0311589 0.173336 0 0.0491783 0.176245 0 0.05 0.154187 0 0.0309306 0.193889 0 0.03 0.154187 0 0.09 0.154187 0 0.0852244 0.183894 0 0.0603954 0.191064 0 0.0695743 0.171725 0 0.0983843 0.171609 0 0.07 0.154187 0 0.13 0.114187 0 0.11 0.134187 0 0.11 0.114187 0 0.13 0.134187 0 0.19 0.114187 0 0.15 0.114187 0 0.17 0.134187 0 0.19 0.134187 0 0.15 0.134187 0 0.17 0.114187 0 0.11 0.154187 0 0.13 0.154187 0 0.123353 0.172518 0 0.110796 0.187597 0 0.138487 0.18094 0 0.192714 0.193133 0 0.17 0.154187 0 0.15 0.154187 0 0.19 0.154187 0 0.155069 0.171054 0 0.178543 0.174159 0 0.166915 0.188275 0 0.23 0.014187 0 0.23 0.054187 0 0.21 0.054187 0 0.23 0.034187 0 0.21 0.034187 0 0.21 0.014187 0 0.27 0.014187 0 0.25 0.054187 0 0.27 0.054187 0 0.25 0.034187 0 0.27 0.034187 0 0.25 0.014187 0 0.23 0.074187 0 0.23 0.094187 0 0.21 0.094187 0 0.21 0.074187 0 0.25 0.074187 0 0.25 0.094187 0 0.27 0.094187 0 0.27 0.074187 0 0.33 0.014187 0 0.29 0.014187 0 0.29 0.034187 0 0.33 0.054187 0 0.33 0.034187 0 0.31 0.054187 0 0.29 0.054187 0 0.31 0.034187 0 0.31 0.014187 0 0.35 0.014187 0 0.37 0.034187 0 0.37 0.054187 0 0.35 0.054187 0 0.35 0.034187 0 0.37 0.014187 0 0.33 0.094187 0 0.33 0.074187 0 0.29 0.094187 0 0.31 0.094187 0 0.31 0.074187 0 0.29 0.074187 0 0.35 0.094187 0 0.35 0.074187 0 0.37 0.094187 0 0.37 0.074187 0 0.21 0.134187 0 0.23 0.114187 0 0.21 0.114187 0 0.23 0.134187 0 0.27 0.114187 0 0.25 0.134187 0 0.25 0.114187 0 0.27 0.134187 0 0.213976 0.191986 0 0.236833 0.191646 0 0.23 0.154187 0 0.219003 0.171933 0 0.21 0.154187 0 0.197937 0.174393 0 0.239533 0.174747 0 0.260091 0.173492 0 0.279595 0.194184 0 0.25 0.154187 0 0.259604 0.192509 0 0.27 0.154187 0 0.280039 0.173301 0 0.31 0.114187 0 0.33 0.134187 0 0.31 0.134187 0 0.33 0.114187 0 0.29 0.114187 0 0.29 0.134187 0 0.35 0.114187 0 0.37 0.114187 0 0.37 0.134187 0 0.35 0.134187 0 0.30042 0.173427 0 0.29 0.154187 0 0.318919 0.175351 0 0.31 0.154187 0 0.33 0.154187 0 0.298754 0.194298 0 0.318743 0.195568 0 0.37 0.154187 0 0.361596 0.171847 0 0.337839 0.172952 0 0.347312 0.189199 0 0.369228 0.189457 0 0.35 0.154187 0 0.39 0.014187 0 0.41 0.054187 0 0.41 0.034187 0 0.39 0.034187 0 0.39 0.054187 0 0.41 0.014187 0 0.47 0.014187 0 0.43 0.014187 0 0.43 0.054187 0 0.47 0.054187 0 0.43 0.034187 0 0.47 0.034187 0 0.45 0.034187 0 0.45 0.054187 0 0.45 0.014187 0 0.39 0.074187 0 0.41 0.094187 0 0.39 0.094187 0 0.41 0.074187 0 0.43 0.074187 0 0.45 0.094187 0 0.45 0.074187 0 0.43 0.094187 0 0.47 0.094187 0 0.47 0.074187 0 0.49 0.014187 0 0.49 0.034187 0 0.51 0.034187 0 0.51 0.054187 0 0.49 0.054187 0 0.51 0.014187 0 0.55 0.014187 0 0.55 0.054187 0 0.53 0.054187 0 0.53 0.034187 0 0.55 0.034187 0 0.53 0.014187 0 0.49 0.074187 0 0.51 0.094187 0 0.49 0.094187 0 0.51 0.074187 0 0.55 0.074187 0 0.53 0.074187 0 0.55 0.094187 0 0.53 0.094187 0 0.41 0.134187 0 0.39 0.134187 0 0.39 0.114187 0 0.41 0.114187 0 0.47 0.134187 0 0.43 0.134187 0 0.45 0.134187 0 0.45 0.114187 0 0.47 0.114187 0 0.43 0.114187 0 0.388209 0.194289 0 0.39 0.154187 0 0.41 0.154187 0 0.424548 0.190072 0 0.418743 0.171986 0 0.4029 0.179439 0 0.385303 0.172146 0 0.45 0.154187 0 0.43 0.154187 0 0.4642 0.182856 0 0.445858 0.170539 0 0.442614 0.188308 0 0.47 0.154187 0 0.51 0.114187 0 0.49 0.134187 0 0.51 0.134187 0 0.49 0.114187 0 0.53 0.134187 0 0.53 0.114187 0 0.55 0.134187 0 0.55 0.114187 0 0.488141 0.190368 0 0.51 0.154187 0 0.477556 0.171486 0 0.500027 0.174214 0 0.49 0.154187 0 0.517345 0.175489 0 0.536017 0.173355 0 0.554662 0.174635 0 0.53 0.154187 0 0.55 0.154187 0 0.546205 0.193452 0 0.00913864 0.223134 0 0.0085358 0.274355 0 0.00968274 0.312811 0 0.0109471 0.293876 0 0.00882429 0.35691 0 0.00947463 0.335431 0 0.0096926 0.377501 0 0.0180199 0.209174 0 0.0394057 0.22137 0 0.0457883 0.20574 0 0.0327053 0.236856 0 0.0143464 0.240986 0 0.0835724 0.224546 0 0.0623422 0.217786 0 0.0948793 0.20262 0 0.103617 0.221136 0 0.0870914 0.24198 0 0.0648814 0.237005 0 0.0756872 0.203427 0 0.0314662 0.275006 0 0.0500563 0.246046 0 0.0127675 0.257223 0 0.0559888 0.270905 0 0.0378128 0.260475 0 0.0939803 0.258464 0 0.0780325 0.275268 0 0.0707174 0.257563 0 0.103097 0.273255 0 0.141237 0.221698 0 0.126753 0.229697 0 0.13254 0.199947 0 0.116645 0.207186 0 0.111347 0.239653 0 0.195187 0.217933 0 0.151873 0.200313 0 0.160748 0.216322 0 0.179504 0.228446 0 0.179096 0.205293 0 0.163423 0.238131 0 0.145829 0.242667 0 0.137091 0.259277 0 0.149548 0.279606 0 0.125586 0.274876 0 0.118434 0.254436 0 0.191597 0.245296 0 0.176984 0.256665 0 0.158769 0.260878 0 0.195496 0.267121 0 0.171555 0.278847 0 0.189959 0.285066 0 0.0508123 0.291389 0 0.0319518 0.29396 0 0.0494639 0.314884 0 0.0291438 0.312815 0 0.0504283 0.332963 0 0.0253225 0.332672 0 0.0922614 0.324169 0 0.0744031 0.334015 0 0.0860583 0.305526 0 0.0923748 0.288872 0 0.0673979 0.315437 0 0.0670932 0.293174 0 0.0431978 0.375216 0 0.0284176 0.359478 0 0.0404569 0.3474 0 0.0570891 0.366328 0 0.0838495 0.35603 0 0.0992739 0.340922 0 0.102102 0.362145 0 0.0656925 0.350069 0 0.0748135 0.377206 0 0.0923263 0.379501 0 0.130917 0.311493 0 0.138938 0.293604 0 0.13257 0.333676 0 0.114418 0.325542 0 0.108084 0.307006 0 0.11795 0.291616 0 0.172429 0.313409 0 0.165384 0.295336 0 0.185176 0.325133 0 0.191442 0.303574 0 0.152539 0.329734 0 0.151698 0.312316 0 0.121985 0.367367 0 0.119939 0.348857 0 0.141987 0.367534 0 0.144675 0.349743 0 0.166709 0.358087 0 0.168871 0.3402 0 0.157544 0.376389 0 0.188454 0.346213 0 0.1829 0.367125 0 0.0069358 0.399681 0 0.012018 0.45175 0 0.00907902 0.432942 0 0.011974 0.48615 0 0.00834494 0.506724 0 0.00946687 0.561964 0 0.00927826 0.540101 0 0.0175178 0.418435 0 0.0452809 0.400274 0 0.0571086 0.415339 0 0.0281791 0.404394 0 0.0263414 0.382118 0 0.0395115 0.425399 0 0.0622028 0.391445 0 0.0821266 0.420749 0 0.0764495 0.403252 0 0.0960024 0.399076 0 0.0325312 0.461541 0 0.0562874 0.463165 0 0.0515976 0.441962 0 0.0131615 0.470177 0 0.0317203 0.442775 0 0.0675322 0.433564 0 0.0854219 0.444267 0 0.0731182 0.458757 0 0.100619 0.434998 0 0.0959219 0.465343 0 0.147216 0.39869 0 0.104809 0.416675 0 0.138716 0.416369 0 0.132479 0.387528 0 0.12069 0.405616 0 0.112734 0.386606 0 0.15607 0.425015 0 0.182249 0.38711 0 0.169977 0.413861 0 0.188601 0.407864 0 0.165053 0.394132 0 0.109746 0.45462 0 0.130483 0.468616 0 0.123159 0.428798 0 0.147739 0.463574 0 0.126141 0.447605 0 0.144137 0.439842 0 0.195983 0.44749 0 0.181928 0.459904 0 0.191147 0.428754 0 0.161965 0.451805 0 0.174082 0.436868 0 0.0494388 0.509014 0 0.0556915 0.492921 0 0.0279996 0.509045 0 0.0314334 0.490273 0 0.0447321 0.476721 0 0.0964854 0.483954 0 0.0747431 0.496761 0 0.0753455 0.47768 0 0.0717934 0.51719 0 0.0929909 0.503758 0 0.027742 0.561978 0 0.0522769 0.551043 0 0.0329197 0.544843 0 0.0158843 0.526094 0 0.0400307 0.527875 0 0.0586812 0.530422 0 0.0793401 0.538604 0 0.0917243 0.523069 0 0.0911759 0.556634 0 0.0707646 0.555817 0 0.133013 0.493427 0 0.147777 0.505144 0 0.116589 0.479329 0 0.11321 0.500088 0 0.126868 0.514577 0 0.169706 0.474087 0 0.194946 0.495846 0 0.175853 0.509621 0 0.151684 0.483216 0 0.192214 0.480935 0 0.169552 0.493933 0 0.125015 0.545027 0 0.138136 0.531398 0 0.111662 0.524929 0 0.104504 0.541936 0 0.134269 0.55976 0 0.193574 0.518705 0 0.177228 0.548451 0 0.17812 0.531315 0 0.156887 0.519711 0 0.155407 0.539396 0 0.155207 0.55711 0 0.226303 0.233449 0 0.232398 0.210911 0 0.214088 0.209064 0 0.208025 0.231629 0 0.252159 0.211743 0 0.270038 0.214131 0 0.280295 0.23763 0 0.262723 0.233918 0 0.243887 0.231786 0 0.211817 0.253672 0 0.231329 0.285813 0 0.215367 0.272862 0 0.230928 0.253832 0 0.260996 0.282505 0 0.267456 0.26094 0 0.285229 0.255504 0 0.251968 0.253854 0 0.28324 0.277674 0 0.242313 0.270298 0 0.290726 0.212749 0 0.320538 0.233175 0 0.298107 0.228544 0 0.314364 0.214712 0 0.352764 0.236044 0 0.334941 0.226171 0 0.372649 0.231657 0 0.352216 0.215078 0 0.367486 0.208056 0 0.335591 0.201531 0 0.329713 0.273413 0 0.3034 0.249853 0 0.296482 0.288259 0 0.321808 0.255162 0 0.306644 0.269819 0 0.368606 0.274751 0 0.361851 0.253329 0 0.341065 0.252579 0 0.349716 0.272284 0 0.225332 0.305374 0 0.210628 0.292871 0 0.225152 0.327482 0 0.206613 0.316148 0 0.282391 0.312504 0 0.274708 0.296193 0 0.246372 0.333524 0 0.276956 0.332961 0 0.244662 0.313926 0 0.249709 0.295678 0 0.26269 0.318192 0 0.206334 0.356183 0 0.200826 0.375265 0 0.227583 0.346485 0 0.224839 0.365968 0 0.206455 0.335717 0 0.241604 0.379278 0 0.284148 0.380104 0 0.262666 0.370119 0 0.260813 0.345447 0 0.245215 0.357848 0 0.276609 0.358828 0 0.32241 0.31231 0 0.305086 0.306299 0 0.33267 0.325862 0 0.31875 0.289103 0 0.298317 0.324685 0 0.348072 0.311559 0 0.378566 0.294955 0 0.35735 0.328957 0 0.357377 0.291856 0 0.337104 0.295551 0 0.369981 0.312119 0 0.379665 0.331865 0 0
[...]
   <PointData  Vectors="vector">
    <DataArray Name="SortedParticle_ID" type="Int32" Format="ascii">
    0 1 2 3 4 5 6 7 8 9 10 11 12 13 14 15 16 17 18 19 20 21 22 23 24 25 26 27 28 29 30 31 32 33 34 35 36 37 38 39 40 41 42 43 44 45 46 47 48 49 50 51 52 53 54 55 56 57 58 59 60 61 62 63 64 65 66 67 68 69 70 71 72 73 74 75 76 77 78 79 80 81 82 83 84 85 86 87 88 89 90 91 92 93 94 95 96 97 98 99 100 101 102 103 104 105 106 107 108 109 110 111 112 113 114 115 116 117 118 119 120 121 122 123 124 125 126 127 128 129 130 131 132 133 134 135 136 137 138 139 140 141 142 143 144 145 146 147 148 149 150 151 152 153 154 155 156 157 158 159 160 161 162 163 164 165 166 167 168 169 170 171 172 173 174 175 176 177 178 179 180 181 182 183 184 185 186 187 188 189 190 191 192 193 194 195 196 197 198 199 200 201 202 203 204 205 206 207 208 209 210 211 212 213 214 215 216 217 218 219 220 221 222 223 224 225 226 227 228 229 230 231 232 233 234 235 236 237 238 239 240 241 242 243 244 245 246 247 248 249 250 251 252 253 254 255 256 257 258 259 260 261 262 263 264 265 266 267 268 269 270 271 272 273 274 275 276 277 278 279 280 281 282 283 284 285 286 287 288 289 290 291 292 293 294 295 296 297 298 299 300 301 302 303 304 305 306 307 308 309 310 311 312 313 314 315 316 317 318 319 320 321 322 323 324 325 326 327 328 329 330 331 332 333 334 335 336 337 338 339 340 341 342 343 344 345 346 347 348 349 350 351 352 353 354 355 356 357 358 359 360 361 362 363 364 365 366 367 368 369 370 371 372 373 374 375 376 377 378 379 380 381 382 383 384 385 386 387 388 389 390 391 392 393 394 395 396 397 398 399 400 401 402 403 404 405 406 407 408 409 410 411 412 413 414 415 416 417 418 419 420 421 422 423 424 425 426 427 428 429 430 431 432 433 434 435 436 437 438 439 440 441 442 443 444 445 446 447 448 449 450 451 452 453 454 455 456 457 458 459 460 461 462 463 464 465 466 467 468 469 470 471 472 473 474 475 476 477 478 479 480 481 482 483 484 485 486 487 488 489 490 491 492 493 494 495 496 497 498 499 500 501 502 503 504 505 506 507 508 509 510 511 512 513 514 515 516 517 518 519 520 521 522 523 524 525 526 527 528 529 530 531 532 533 534 535 536 537 538 539 540 541 542 543 544 545 546 547 548 549 550 551 552 553 554 555 556 557 558 559 560 561 562 563 564 565 566 567 568 569 570 571 572 573 574 575 576 577 578 579 580 581 582 583 584 585 586 587 588 589 590 591 592 593 594 595 596 597 598 599 600 601 602 603 604 605 606 607 608 609 610 611 612 613 614 615 616 617 618 619 620 621 622 623 624 625 626 627 628 629 630 631 632 633 634 635 636 637 638 639 640 641 642 643 644 645 646 647 648 649 650 651 652 653 654 655 656 657 658 659 660 661 662 663 664 665 666 667 668 669 670 671 672 673 674 675 676 677 678 679 680 681 682 683 684 685 686 687 688 689 690 691 692 693 694 695 696 697 698 699 700 701 702 703 704 705 706 707 708 709 710 711 712 713 714 715 716 717 718 719 720 721 722 723 724 725 726 727 728 729 730 731 732 733 734 735 736 737 738 739 740 741 742 743 744 745 746 747 748 749 750 751 752 753 754 755 756 757 758 759 760 761 762 763 764 765 766 767 768 769 770 771 772 773 774 775 776 777 778 779 780 781 782 783 784 785 786 787 788 789 790 791 792 793 794 795 796 797 798 799 800 801 802 803 804 805 806 807 808 809 810 811 812 813 814 815 816 817 818 819 820 821 822 823 824 825 826 827 828 829 830 831 832 833 834 835 836 837 838 839 840 841 842 843 844 845 846 847 848 849 850 851 852 853 854 855 856 857 858 859 860 861 862 863 864 865 866 867 868 869 870 871 872 873 874 875 876 877 878 879 880 881 882 883 884 885 886 887 888 889 890 891 892 893 894 895 896 897 898 899 900 901 902 903 904 905 906 907 908 909 910 911 912 913 914 915 916 917 918 919 920 921 922 923 924 925 926 927 928 929 930 931 932 933 934 935 936 937 938 939 940 941 942 943 944 945 946 947 948 949 950 951 952 953 954 955 956 957 958 959 960 961 962 963 964 965 966 967 968 969 970 971 972 973 974 975 976 977 978 979 980 981 982 983 984 985 986 987 988 989 990 991 992 993 994 995 996 997 998 999 1000 1001 1002 1003 1004 1005 1006 1007 1008 1009 1010 1011 1012 1013 1014 1015 1016 1017 1018 1019 1020 1021 1022 1023 1024 1025 1026 1027 1028 1029 1030 1031 1032 1033 1034 1035 1036 1037 1038 1039 1040 1041 1042 1043 1044 1045 1046 1047 1048 1049 1050 1051 1052 1053 1054 1055 1056 1057 1058 1059 1060 1061 1062 1063 1064 1065 1066 1067 1068 1069 1070 1071 1072 1073 1074 1075 1076 1077 1078 1079 1080 1081 1082 1083 1084 1085 1086 1087 1088 1089 1090 1091 1092 1093 1094 1095 1096 1097 1098 1099 1100 1101 1102 1103 1104 1105 1106 1107 1108 1109 1110 1111 1112 1113 1114 1115 1116 1117 1118 1119 1120 1121 1122 1123 1124 1125 1126 1127 1128 1129 1130 1131 1132 1133 1134 1135 1136 1137 1138 1139 1140 1141 1142 1143 1144 1145 1146 1147 1148 1149 1150 1151 1152 1153 1154 1155 1156 1157 1158 1159 1160 1161 1162 1163 1164 1165 1166 1167 1168 1169 1170 1171 1172 1173 1174 1175 1176 1177 1178 1179 1180 1181 1182 1183 1184 1185 1186 1187 1188 1189 1190 1191 1192 1193 1194 1195 1196 1197 1198 1199 1200 1201 1202 1203 1204 1205 1206 1207 1208 1209 1210 1211 1212 1213 1214 1215 1216 1217 1218 1219 1220 1221 1222 1223 1224 1225 1226 1227 1228 1229 1230 1231 1232 1233 1234 1235 1236 1237 1238 1239 1240 1241 1242 1243 1244 1245 1246 1247 1248 1249 1250 1251 1252 1253 1254 1255 1256 1257 1258 1259 1260 1261 1262 1263 1264 1265 1266 1267 1268 1269 1270 1271 1272 1273 1274 1275 1276 1277 1278 1279 1280 1281 1282 1283 1284 1285 1286 1287 1288 1289 1290 1291 1292 1293 1294 1295 1296 1297 1298 1299 1300 1301 1302 1303 1304 1305 1306 1307 1308 1309 1310 1311 1312 1313 1314 1315 1316 1317 1318 1319 1320 1321 1322 1323 1324 1325 1326 1327 1328 1329 1330 1331 1332 1333 1334 1335 1336 1337 1338 1339 1340 1341 1342 1343 1344 1345 1346 1347 1348 1349 1350 1351 1352 1353 1354 1355 1356 1357 1358 1359 1360 1361 1362 1363 1364 1365 1366 1367 1368 1369 1370 1371 1372 1373 1374 1375 1376 1377 1378 1379 1380 1381 1382 1383 1384 1385 1386 1387 1388 1389 1390 1391 1392 1393 1394 1395 1396 1397 1398 1399 1400 1401 1402 1403 1404 1405 1406 1407 1408 1409 1410 1411 1412 1413 1414 1415 1416 1417 1418 1419 1420 1421 1422 1423 1424 1425 1426 1427 1428 1429 1430 1431 1432 1433 1434 1435 1436 1437 1438 1439 1440 1441 1442 1443 1444 1445 1446 1447 1448 1449 1450 1451 1452 1453 1454 1455 1456 1457 1458 1459 1460 1461 1462 1463 1464 1465 1466 1467 1468 1469 1470 1471 1472 1473 1474 1475 1476 1477 1478 1479 1480 1481 1482 1483 1484 1485 1486 1487 1488 1489 1490 1491 1492 1493 1494 1495 1496 1497 1498 1499 1500 1501 1502 1503 1504 1505 1506 1507 1508 1509 1510 1511 1512 1513 1514 1515 1516 1517 1518 1519 1520 1521 1522 1523 1524 1525 1526 1527 1528 1529 1530 1531 1532 1533 1534 1535 1536 1537 1538 1539 1540 1541 1542 1543 1544 1545 1546 1547 1548 1549 1550 1551 1552 1553 1554 1555 1556 1557 1558 1559 1560 1561 1562 1563 1564 1565 1566 1567 1568 1569 1570 1571 1572 1573 1574 1575 1576 1577 1578 1579 1580 1581 1582 1583 1584 1585 1586 1587 1588 1589 1590 1591 1592 1593 1594 1595 1596 1597 1598 1599 1600 1601 1602 1603 1604 1605 1606 1607 1608 1609 1610 1611 1612 1613 1614 1615 1616 1617 1618 1619 1620 1621 1622 1623 1624 1625 1626 1627 1628 1629 1630 1631 1632 1633 1634 1635 1636 1637 1638 1639 1640 1641 1642 1643 1644 1645 1646 1647 1648 1649 1650 1651 1652 1653 1654 1655 1656 1657 1658 1659 1660 1661 1662 1663 1664 1665 1666 1667 1668 1669 1670 1671 1672 1673 1674 1675 1676 1677 1678 1679 1680 1681 1682 1683 1684 1685 1686 1687 1688 1689 1690 1691 1692 1693 1694 1695 1696 1697 1698 1699 1700 1701 1702 1703 1704 1705 1706 1707 1708 1709 1710 1711 1712 1713 1714 1715 1716 1717 1718 1719 1720 1721 1722 1723 1724 1725 1726 1727 1728 1729 1730 1731 1732 1733 1734 1735 1736 1737 1738 1739 1740 1741 1742 1743 1744 1745 1746 1747 1748 1749 1750 1751 1752 1753 1754 1755 1756 1757 1758 1759 1760 1761 1762 1763 1764 1765 1766 1767 1768 1769 1770 1771 1772 1773 1774 1775 1776 1777 1778 1779 1780 1781 1782 1783 1784 1785 1786 1787 1788 1789 1790 1791 1792 1793 1794 1795 1796 1797 1798 1799 1800 1801 1802 1803 1804 1805 1806 1807 1808 1809 1810 1811 1812 1813 1814 1815 1816 1817 1818 1819 1820 1821 1822 1823 1824 1825 1826 1827 1828 1829 1830 1831 1832 1833 1834 1835 1836 1837 1838 1839 1840 1841 1842 1843 1844 1845 1846 1847 1848 1849 1850 1851 1852 1853 1854 1855 1856 1857 1858 1859 1860 1861 1862 1863 1864 1865 1866 1867 1868 1869 1870 1871 1872 1873 1874 1875 1876 1877 1878 1879 1880 1881 1882 1883 1884 1885 1886 1887 1888 1889 1890 1891 1892 1893 1894 1895 1896 1897 1898 1899 1900 1901 1902 1903 1904 1905 1906 1907 1908 1909 1910 1911 1912 1913 1914 1915 1916 1917 1918 1919 1920 1921 1922 1923 1924 1925 1926 1927 1928 1929 1930 1931 1932 1933 1934 1935 1936 1937 1938 1939 1940 1941 1942 1943 1944 1945 1946 1947 1948 1949 1950 1951 1952 1953 1954 1955 1956 1957 1958 1959 1960 1961 1962 1963 1964 1965 1966 1967 1968 1969 1970 1971 1972 1973 1974 1975 1976 1977 1978 1979 1980 1981 1982 1983 1984 1985 1986 1987 1988 1989 1990 1991 1992 1993 1994 1995 1996 1997 1998 1999 2000 2001 2002 2003 2004 2005 2006 2007 2008 2009 2010 2011 2012 2013 2014 2015 2016 2017 2018 2019 2020 2021 2022 2023 2024 2025 2026 2027 2028 2029 2030 2031 2032 2033 2034 2035 2036 2037 2038 2039 2040 2041 2042 2043 2044 2045 2046 2047 2048 2049 2050 2051 2052 2053 2054 2055 2056 2057 2058 2059 2060 2061 2062 2063 2064 2065 2066 2067 2068 2069 2070 2071 2072 2073 2074 2075 2076 2077 2078 2079 2080 2081 2082 2083 2084 2085 2086 2087 2088 
    </DataArray>
    <DataArray Name="OriginalID" type="Int32" Format="ascii">
    1 3 2 5 4 7 6 101 100 0 38 74 75 73 37 39 110 111 147 109 145 146 76 77 41 40 148 149 112 113 183 218 182 181 217 219 255 291 254 327 290 326 253 289 325 185 184 220 221 292 256 328 293 257 329 79 43 78 42 114 150 115 151 2058 2059 72 93 36 144 2025 33 2060 2075 108 222 187 186 223 330 258 295 331 259 294 180 216 2074 2056 2057 2048 288 252 324 2073 2082 2029 397 399 363 398 362 361 469 435 471 434 470 433 400 401 365 364 436 437 473 472 577 505 506 579 578 543 507 542 541 613 650 651 615 614 649 581 580 509 545 544 508 617 616 653 652 367 402 366 403 474 439 438 475 2028 2055 396 2085 360 2070 2069 2083 2044 432 2032 468 2068 546 583 547 582 510 511 618 654 655 619 2081 504 2072 540 576 2035 2047 648 2064 2084 2030 2043 612 685 723 722 686 687 721 829 757 759 831 758 830 794 795 793 688 725 689 724 760 797 796 761 833 832 865 866 902 903 867 901 973 975 939 938 974 937 868 905 869 904 976 940 977 941 727 691 690 726 835 763 799 798 834 762 2031 684 720 2036 2080 2066 2065 792 756 2078 2063 2037 828 906 871 907 870 943 942 979 978 2079 900 2067 2061 864 2076 2071 2086 936 972 2042 35 141 173 135 71 164 178 165 68 103 105 139 128 89 30 66 65 133 67 163 134 106 98 132 94 124 90 88 1958 64 2026 2027 69 2005 2038 2024 2054 2023 1992 22 28 1971 34 92 2050 1993 1998 1990 2002 1994 102 130 96 161 129 95 52 25 53 54 70 87 159 125 127 123 60 56 27 126 21 26 61 63 97 58 91 32 62 1964 11 1977 57 9 18 55 23 59 24 29 15 31 19 174 143 213 247 211 206 179 142 160 195 140 166 162 86 51 85 47 177 99 197 176 104 122 120 158 119 155 17 50 12 16 49 20 8 10 14 45 1902 84 81 48 153 83 46 189 116 1872 44 117 131 196 169 212 136 121 232 231 198 157 170 236 175 207 249 199 234 271 272 235 82 193 156 194 229 154 337 192 118 191 228 230 267 303 268 269 301 302 338 265 266 304 1995 2046 2000 1982 2014 1996 1960 1976 2007 1937 1966 1991 1985 1965 1940 1975 1979 1932 1962 2010 1973 1961 2006 2015 2004 1978 2020 2022 2016 1957 1926 1947 2021 1945 1941 1959 1974 1931 1954 1963 1953 1933 1898 1927 1930 1928 1943 1929 1944 13 1905 1906 1921 1924 1868 1901 1918 1904 1935 1942 1909 1917 1880 1916 1899 1920 1895 1866 1897 1896 1889 1864 1879 1865 1869 1919 1876 584 549 548 1862 1878 2011 2040 2009 1999 1988 2019 1981 2008 1970 2039 1968 1893 1946 1925 1908 1955 1911 1984 1894 1952 1956 2051 2001 2003 2049 2034 2018 1172 2033 2012 2041 1969 2013 1989 1980 1972 1987 1997 1129 1131 1986 1174 1887 1881 1860 1912 1859 1948 1907 1891 1877 728 620 656 585 692 800 1892 764 1858 729 836 1938 1950 1913 1936 1967 1983 1130 1922 1163 1951 1939 1949 1882 1934 1874 1915 1884 1161 1162 1888 1914 1125 1861 1900 1910 1873 1870 188 152 224 296 1871 332 1890 80 225 226 261 298 299 297 262 368 369 260 1867 333 441 512 404 513 440 1863 406 370 335 334 443 479 515 442 405 373 190 227 409 336 372 300 411 264 263 339 450 374 375 376 413 412 447 449 448 487 410 371 408 407 445 516 480 482 518 517 481 444 484 446 483 559 485 521 520 522 555 557 519 550 621 551 514 658 476 765 657 693 694 587 586 552 477 478 660 695 622 730 659 623 908 1923 1903 1883 980 944 1124 1875 1885 1886 767 872 766 768 873 731 1016 945 910 1053 802 909 588 554 553 589 590 624 662 625 661 698 626 596 595 556 593 594 592 627 629 591 732 734 696 697 801 806 838 803 733 770 663 699 664 701 628 737 700 735 736 771 772 1047 1011 1010 1046 1045 1009 1081 1155 1119 1083 1118 1082 1154 1117 1153 1049 1048 1012 1013 1085 1157 1120 1084 1156 1121 1015 1051 1050 1014 1123 1087 1159 1086 1158 1122 1167 1044 2087 1008 2077 2045 2062 1152 1175 1116 2053 2088 1137 1080 1173 2052 2017 1100 1060 1138 1059 1176 1134 1136 1132 1099 1135 1094 1133 1097 1168 988 1095 1096 1061 1093 1023 1056 1170 1171 1055 1092 1057 1021 1019 986 1098 1165 1164 1169 1128 1160 1166 947 1058 1054 985 984 1020 1089 1088 1127 1052 1126 911 982 948 1091 875 983 1017 1090 839 1018 874 946 1025 912 876 877 840 842 769 981 805 804 837 878 1022 841 949 913 809 774 808 807 879 950 843 844 915 914 987 1063 1139 1102 1140 953 952 989 951 1024 1101 990 1062 1103 1068 1104 1105 1106 993 1065 1028 1067 1066 1030 994 1033 1032 1031 997 1141 1177 1142 1199 1178 1107 1143 1069 1070 1035 1201 1200 1179 1144 1189 1190 1243 1221 1265 1298 1254 1222 1188 1232 1210 1211 1277 1255 1233 1234 1276 1342 1309 1375 1353 1288 1320 1287 1289 1300 1311 1301 1331 1299 1365 1386 1408 1376 1397 1321 1310 1322 1364 1334 1323 1355 1332 1333 1343 1354 1419 1441 1463 1452 1366 1377 1388 1387 1367 1431 1430 1409 1420 241 208 107 243 214 210 137 171 168 172 205 238 237 201 200 204 240 202 167 275 138 313 203 276 307 270 306 233 273 305 342 344 341 343 340 311 309 348 347 310 274 346 382 345 308 381 278 242 281 244 248 282 280 353 277 279 239 317 246 209 283 245 286 319 321 285 349 315 314 385 312 384 388 387 350 383 386 316 284 357 320 318 351 354 355 425 352 356 215 251 250 323 287 322 358 359 377 378 380 414 379 486 489 415 452 451 454 419 416 457 420 417 418 455 453 456 527 494 492 490 523 488 524 526 558 525 560 561 562 563 528 491 529 531 599 564 602 565 601 423 421 458 422 424 459 495 460 493 391 392 390 389 426 461 427 429 393 428 463 499 530 496 462 498 497 532 569 566 533 570 501 466 465 464 535 536 500 573 537 631 633 634 632 598 597 667 668 705 630 666 567 637 600 635 636 671 673 669 670 638 672 704 703 665 702 738 740 775 739 773 742 707 706 708 741 743 709 777 746 745 781 744 603 568 534 605 572 640 675 639 604 608 609 574 571 607 610 642 641 643 645 606 674 713 676 678 677 714 716 712 710 711 747 715 679 644 646 751 749 682 680 681 717 395 394 431 430 467 503 502 539 575 538 611 683 647 719 778 811 776 810 845 847 848 812 813 880 881 779 782 816 817 815 780 814 851 819 854 849 846 917 884 916 883 882 1027 918 919 991 885 850 818 852 886 956 923 954 955 887 920 888 787 789 783 748 750 784 858 785 786 823 820 752 790 754 753 718 860 826 788 825 824 856 821 822 855 853 925 891 893 890 889 895 857 861 859 896 898 897 894 862 1064 1029 1026 992 1034 961 996 964 962 995 926 922 921 958 959 957 1036 1037 963 998 999 960 1145 1071 1108 1181 1202 1191 1203 1212 1192 1180 1072 1109 1182 1183 1206 1204 1193 1194 1185 928 1001 924 966 927 1003 969 967 1002 968 930 892 933 931 929 934 965 932 1005 1007 1004 1000 1147 1073 1110 1148 1146 1076 1078 1184 970 1039 1038 1075 1040 1074 1112 1111 1042 1006 755 791 827 863 899 935 971 1043 1079 1245 1213 1214 1235 1224 1246 1257 1223 1267 1256 1236 1244 1186 1207 1195 1205 1225 1247 1196 1258 1226 1291 1279 1266 1278 1268 1290 1302 1303 1281 1292 1312 1283 1260 1216 1269 1280 1259 1271 1273 1270 1308 1295 1150 1149 1113 1187 1151 1114 1229 1209 1208 1219 1215 1197 1115 1220 1198 1077 1041 1239 1250 1218 1230 1231 1261 1238 1217 1248 1237 1297 1275 1264 1274 1294 1262 1272 1227 1249 1228 1242 1240 1252 1251 1241 1263 1284 1253 1304 1335 1282 1324 1313 1346 1337 1336 1345 1325 1344 1293 1306 1307 1296 1305 1319 1316 1315 1314 1317 1400 1368 1399 1378 1389 1411 1412 1402 1401 1410 1398 1347 1380 1357 1356 1348 1369 1414 1413 1390 1379 1436 1318 1286 1352 1330 1285 1329 1351 1341 1328 1326 1384 1395 1374 1363 1362 1385 1340 1361 1383 1350 1373 1327 1339 1358 1349 1370 1415 1437 1425 1391 1338 1381 1360 1371 1359 1372 1404 1403 1405 1394 1392 1396 1418 1407 1464 1485 1474 1496 1486 1432 1442 1443 1455 1453 1466 1444 1475 1465 1454 1497 1507 1518 1519 1488 1521 1498 1487 1476 1509 1508 1510 1529 1530 1540 1595 1562 1606 1617 1541 1542 1551 1563 1552 1607 1574 1584 1596 1573 1694 1718 1650 1728 1662 1608 1618 1672 1629 1639 1729 1717 1661 1628 1651 1738 1654 1683 1640 1641 1727 1663 1684 1719 1855 1833 1808 1826 1784 1786 1785 1800 1814 1799 1801 1821 1837 1840 1433 1421 1445 1422 1434 1477 1467 1457 1456 1448 1424 1447 1435 1423 1438 1461 1469 1446 1470 1459 1458 1499 1479 1489 1490 1478 1511 1500 1520 1501 1543 1522 1531 1481 1502 1492 1468 1525 1491 1523 1526 1513 1512 1534 1427 1426 1450 1406 1417 1472 1483 1482 1460 1439 1416 1382 1429 1393 1440 1428 1451 1495 1462 1473 1494 1484 1480 1515 1493 1503 1471 1504 1449 1538 1524 1537 1536 1514 1527 1516 1505 1506 1517 1569 1528 1560 1549 1539 1559 1532 1565 1544 1554 1553 1575 1585 1564 1597 1576 1586 1545 1533 1546 1556 1566 1555 1588 1587 1619 1620 1599 1609 1642 1610 1621 1631 1632 1622 1613 1635 1623 1601 1600 1598 1611 1643 1625 1644 1634 1633 1535 1547 1557 1568 1567 1548 1577 1589 1612 1602 1578 1580 1558 1571 1550 1579 1591 1570 1590 1582 1626 1647 1637 1615 1648 1614 1659 1624 1670 1681 1593 1592 1603 1581 1594 1605 1692 1627 1604 1616 1572 1561 1583 1655 1673 1716 1652 1630 1653 1674 1707 1751 1778 1685 1695 1676 1656 1665 1664 1708 1675 1697 1705 1687 1787 1819 1811 1706 1749 1830 1803 1795 1752 1730 1686 1741 1709 1696 1760 1731 1845 1817 1779 1848 1636 1646 1666 1657 1645 1668 1669 1689 1667 1700 1677 1688 1660 1703 1680 1649 1679 1638 1658 1690 1678 1691 1714 1710 1701 1721 1699 1732 1720 1818 1796 1804 1698 1713 1712 1711 1702 1723 1734 1742 1722 1693 1725 1810 1843 1797 1831 1851 1823 1829 1834 1759 1824 1769 1820 1806 1740 1805 1825 1812 1780 1844 1704 1739 1743 1733 1753 1750 1724 1770 1761 1762 1735 1715 1736 1838 1756 1788 1847 1839 1790 1842 1746 1755 1789 1744 1745 1771 1767 1754 1726 1747 1671 1682 1798 1846 1765 1757 1850 1763 1737 1782 1764 1766 1835 1836 1853 1781 1758 1775 1748 1813 1791 1773 1832 1776 1849 1768 1774 1783 1792 1772 1841 1793 1777 1794 1807 1802 1828 1827 1816 1815 1822 1809 1854 1852 1856 1857 
    </DataArray>
    <DataArray Name="Density" type="Float32" Format="ascii">