<?xml version="1.0"?>
<VTKFile type="PolyData" version="0.1" byte_order="LittleEndian">
 <PolyData>
  <Piece Name ="WaterBlock" NumberOfPoints="2085" NumberOfVerts="2085">
   <Points>
    <DataArray Name="Position" type="Float32"  NumberOfComponents="3" Format="ascii">
    0.01 0.0551142 0 0.01 0.0151142 0 0.01 0.0351142 0 0.01 0.0951142 0 0.01 0.0751142 0 0.01 0.115114 0 0.01 0.135114 0 0.01 0.155114 0 0.0112295 0.185636 0 0.03 0.0351142 0 0.05 0.0351142 0 0.03 0.0151142 0 0.05 0.0551142 0 0.05 0.0151142 0 0.03 0.0551142 0 0.09 0.0351142 0 0.07 0.0351142 0 0.09 0.0151142 0 0.07 0.0551142 0 0.07 0.0151142 0 0.09 0.0551142 0 0.03 0.0751142 0 0.05 0.0951142 0 0.03 0.0951142 0 0.05 0.0751142 0 0.07 0.0951142 0 0.09 0.0951142 0 0.07 0.0751142 0 0.09 0.0751142 0 0.13 0.0551142 0 0.11 0.0351142 0 0.11 0.0551142 0 0.11 0.0151142 0 0.13 0.0151142 0 0.13 0.0351142 0 0.17 0.0151142 0 0.15 0.0151142 0 0.15 0.0551142 0 0.17 0.0351142 0 0.19 0.0551142 0 0.15 0.0351142 0 0.19 0.0351142 0 0.17 0.0551142 0 0.19 0.0151142 0 0.11 0.0951142 0 0.13 0.0751142 0 0.13 0.0951142 0 0.11 0.0751142 0 0.19 0.0751142 0 0.19 0.0951142 0 0.17 0.0951142 0 0.17 0.0751142 0 0.15 0.0951142 0 0.15 0.0751142 0 0.03 0.135114 0 0.05 0.135114 0 0.05 0.115114 0 0.03 0.115114 0 0.07 0.115114 0 0.09 0.115114 0 0.09 0.135114 0 0.07 0.135114 0 0.0443599 0.173763 0 0.03 0.155114 0 0.0184287 0.171832 0 0.05 0.155114 0 0.0386951 0.187763 0 0.100839 0.193155 0 0.0647266 0.188592 0 0.0695074 0.172934 0 0.09 0.155114 0 0.0907965 0.175416 0 0.07 0.155114 0 0.13 0.115114 0 0.13 0.135114 0 0.11 0.115114 0 0.11 0.135114 0 0.19 0.135114 0 0.15 0.135114 0 0.19 0.115114 0 0.17 0.115114 0 0.17 0.135114 0 0.15 0.115114 0 0.149332 0.175038 0 0.109893 0.174381 0 0.13 0.155114 0 0.14061 0.195225 0 0.130716 0.174798 0 0.11 0.155114 0 0.186154 0.184616 0 0.171509 0.173276 0 0.161993 0.191968 0 0.19 0.155114 0 0.15 0.155114 0 0.17 0.155114 0 0.23 0.0351142 0 0.21 0.0551142 0 0.21 0.0351142 0 0.23 0.0551142 0 0.23 0.0151142 0 0.21 0.0151142 0 0.27 0.0151142 0 0.25 0.0551142 0 0.25 0.0351142 0 0.27 0.0351142 0 0.25 0.0151142 0 0.27 0.0551142 0 0.21 0.0951142 0 0.21 0.0751142 0 0.23 0.0751142 0 0.23 0.0951142 0 0.27 0.0951142 0 0.25 0.0951142 0 0.25 0.0751142 0 0.27 0.0751142 0 0.31 0.0351142 0 0.31 0.0551142 0 0.31 0.0151142 0 0.29 0.0151142 0 0.33 0.0151142 0 0.29 0.0551142 0 0.33 0.0551142 0 0.29 0.0351142 0 0.33 0.0351142 0 0.35 0.0151142 0 0.35 0.0551142 0 0.37 0.0551142 0 0.37 0.0351142 0 0.37 0.0151142 0 0.35 0.0351142 0 0.29 0.0751142 0 0.31 0.0951142 0 0.33 0.0751142 0 0.31 0.0751142 0 0.33 0.0951142 0 0.29 0.0951142 0 0.37 0.0751142 0 0.37 0.0951142 0 0.35 0.0751142 0 0.35 0.0951142 0 0.23 0.115114 0 0.21 0.135114 0 0.23 0.135114 0 0.21 0.115114 0 0.25 0.115114 0 0.27 0.115114 0 0.25 0.135114 0 0.27 0.135114 0 0.21 0.155114 0 0.238475 0.193311 0 0.215351 0.189117 0 0.224104 0.174774 0 0.23 0.155114 0 0.199972 0.171928 0 0.25 0.155114 0 0.245042 0.174232 0 0.264523 0.174391 0 0.284481 0.176023 0 0.277381 0.193383 0 0.27 0.155114 0 0.31 0.135114 0 0.31 0.115114 0 0.33 0.115114 0 0.29 0.115114 0 0.29 0.135114 0 0.33 0.135114 0 0.37 0.115114 0 0.37 0.135114 0 0.35 0.115114 0 0.35 0.135114 0 0.31 0.155114 0 0.323428 0.175197 0 0.308695 0.193781 0 0.302785 0.173919 0 0.328211 0.194652 0 0.33 0.155114 0 0.29 0.155114 0 0.35 0.155114 0 0.379262 0.174156 0 0.37 0.155114 0 0.343246 0.173911 0 0.36132 0.176781 0 0.39 0.0351142 0 0.39 0.0151142 0 0.41 0.0551142 0 0.41 0.0151142 0 0.39 0.0551142 0 0.41 0.0351142 0 0.43 0.0351142 0 0.45 0.0351142 0 0.47 0.0551142 0 0.43 0.0551142 0 0.45 0.0551142 0 0.47 0.0151142 0 0.43 0.0151142 0 0.45 0.0151142 0 0.47 0.0351142 0 0.41 0.0951142 0 0.41 0.0751142 0 0.39 0.0951142 0 0.39 0.0751142 0 0.43 0.0951142 0 0.47 0.0951142 0 0.43 0.0751142 0 0.45 0.0751142 0 0.47 0.0751142 0 0.45 0.0951142 0 0.49 0.0551142 0 0.49 0.0351142 0 0.51 0.0151142 0 0.49 0.0151142 0 0.51 0.0351142 0 0.51 0.0551142 0 0.53 0.0351142 0 0.53 0.0151142 0 0.55 0.0151142 0 0.55 0.0551142 0 0.55 0.0351142 0 0.53 0.0551142 0 0.51 0.0751142 0 0.49 0.0951142 0 0.51 0.0951142 0 0.49 0.0751142 0 0.55 0.0751142 0 0.53 0.0951142 0 0.55 0.0951142 0 0.53 0.0751142 0 0.41 0.135114 0 0.39 0.135114 0 0.39 0.115114 0 0.41 0.115114 0 0.45 0.135114 0 0.43 0.135114 0 0.45 0.115114 0 0.43 0.115114 0 0.47 0.115114 0 0.47 0.135114 0 0.398913 0.175872 0 0.39 0.155114 0 0.391511 0.192613 0 0.41 0.155114 0 0.419694 0.173313 0 0.418928 0.191573 0 0.45 0.155114 0 0.447374 0.194074 0 0.440217 0.174452 0 0.47 0.155114 0 0.460001 0.175167 0 0.43 0.155114 0 0.49 0.135114 0 0.51 0.115114 0 0.49 0.115114 0 0.51 0.135114 0 0.55 0.135114 0 0.53 0.135114 0 0.53 0.115114 0 0.55 0.115114 0 0.479017 0.174774 0 0.486345 0.194778 0 0.499005 0.174533 0 0.51 0.155114 0 0.49 0.155114 0 0.505197 0.195827 0 0.542574 0.194038 0 0.558339 0.174618 0 0.53 0.155114 0 0.518165 0.175395 0 0.55 0.155114 0 0.537312 0.174182 0 0.00955852 0.221012 0 0.0112381 0.269683 0 0.00938478 0.308908 0 0.010918 0.328329 0 0.00900571 0.28935 0 0.00966494 0.371123 0 0.00868267 0.348031 0 0.012827 0.202176 0 0.0555057 0.238624 0 0.0337885 0.204359 0 0.0361547 0.238942 0 0.0317046 0.221439 0 0.0570714 0.220149 0 0.0576859 0.205333 0 0.0131039 0.238815 0 0.0867588 0.215088 0 0.0778699 0.228799 0 0.0815546 0.199443 0 0.0515332 0.274635 0 0.0328102 0.27778 0 0.0158474 0.254879 0 0.0388665 0.258893 0 0.103554 0.261609 0 0.0805195 0.262537 0 0.092613 0.279617 0 0.0708218 0.280206 0 0.0828646 0.245037 0 0.0604662 0.255377 0 0.111191 0.210631 0 0.127702 0.226297 0 0.106489 0.22827 0 0.121954 0.196161 0 0.141324 0.21421 0 0.177952 0.204717 0 0.160598 0.213163 0 0.151647 0.233512 0 0.183136 0.225544 0 0.169904 0.236017 0 0.105068 0.243766 0 0.124411 0.259887 0 0.132528 0.243749 0 0.148575 0.255991 0 0.113947 0.280264 0 0.135997 0.275376 0 0.165756 0.287808 0 0.188574 0.255088 0 0.170142 0.255417 0 0.183059 0.274883 0 0.158216 0.27217 0 0.0459559 0.329531 0 0.0481872 0.299202 0 0.0319608 0.315138 0 0.0298127 0.295981 0 0.0935944 0.297877 0 0.0608922 0.315882 0 0.0674275 0.296547 0 0.0854731 0.312024 0 0.0733746 0.328673 0 0.0997175 0.32702 0 0.043495 0.358474 0 0.0571829 0.345205 0 0.0265341 0.358337 0 0.0287871 0.336036 0 0.0645443 0.373733 0 0.0870499 0.341879 0 0.0912031 0.363973 0 0.0708891 0.356109 0 0.116295 0.320938 0 0.131443 0.292196 0 0.112688 0.302012 0 0.137012 0.331974 0 0.134843 0.313193 0 0.195713 0.310224 0 0.150917 0.299403 0 0.156641 0.320468 0 0.189945 0.292298 0 0.17188 0.307118 0 0.181471 0.32394 0 0.149841 0.347724 0 0.122561 0.344362 0 0.123308 0.367487 0 0.106907 0.348683 0 0.105245 0.373784 0 0.140242 0.362649 0 0.181928 0.370101 0 0.155852 0.377966 0 0.168236 0.362764 0 0.164308 0.338103 0 0.183375 0.345941 0 0.0110409 0.39081 0 0.0111248 0.409304 0 0.00829439 0.428536 0 0.00786811 0.454643 0 0.0108983 0.481281 0 0.00821568 0.501941 0 0.00831195 0.554264 0 0.00757331 0.528569 0 0.0559156 0.416553 0 0.0471944 0.379558 0 0.0407135 0.399177 0 0.0307407 0.411774 0 0.0282543 0.380636 0 0.100718 0.395791 0 0.0817662 0.38233 0 0.0812611 0.401568 0 0.101163 0.416406 0 0.0624829 0.397608 0 0.0759246 0.420497 0 0.0494331 0.43177 0 0.0440943 0.450591 0 0.0223521 0.44978 0 0.0460948 0.466645 0 0.0284502 0.431363 0 0.0685158 0.470391 0 0.0783461 0.437569 0 0.0832567 0.463035 0 0.0650792 0.448781 0 0.0970168 0.434822 0 0.0991392 0.459975 0 0.118146 0.39217 0 0.117159 0.417328 0 0.134837 0.40384 0 0.137361 0.422574 0 0.137371 0.384789 0 0.156103 0.413783 0 0.177707 0.416271 0 0.177561 0.392057 0 0.160708 0.396225 0 0.195107 0.422942 0 0.194903 0.400297 0 0.140809 0.456678 0 0.124348 0.466894 0 0.127613 0.440481 0 0.111623 0.446453 0 0.149467 0.439588 0 0.171889 0.452455 0 0.160207 0.46481 0 0.167002 0.43188 0 0.187944 0.441466 0 0.0413582 0.507439 0 0.0561481 0.487894 0 0.0244567 0.506233 0 0.0381709 0.485589 0 0.0230214 0.473791 0 0.0971332 0.489044 0 0.0859909 0.50754 0 0.0644181 0.505767 0 0.0790678 0.488649 0 0.0419345 0.56333 0 0.0549428 0.549997 0 0.0523459 0.523384 0 0.0250128 0.552015 0 0.0396993 0.53719 0 0.0230173 0.527465 0 0.0710629 0.526253 0 0.0879919 0.529627 0 0.0699908 0.549552 0 0.0877292 0.553334 0 0.143989 0.479247 0 0.116535 0.501712 0 0.110166 0.477915 0 0.105483 0.514599 0 0.13902 0.509513 0 0.130666 0.490455 0 0.181436 0.473775 0 0.183154 0.495219 0 0.163288 0.485682 0 0.157171 0.502248 0 0.182072 0.51231 0 0.104414 0.554593 0 0.137562 0.56054 0 0.126422 0.526315 0 0.107144 0.534513 0 0.146603 0.528564 0 0.128802 0.544151 0 0.184401 0.530875 0 0.169937 0.543541 0 0.163286 0.520402 0 0.178763 0.558945 0 0.153125 0.549917 0 0.200341 0.224095 0 0.197553 0.201016 0 0.220612 0.239302 0 0.241696 0.210595 0 0.226586 0.222992 0 0.215492 0.208174 0 0.258422 0.19693 0 0.247654 0.233931 0 0.271971 0.236973 0 0.260845 0.219929 0 0.278296 0.213199 0 0.201983 0.243245 0 0.207517 0.264826 0 0.239797 0.249519 0 0.22572 0.262165 0 0.206556 0.28211 0 0.228233 0.285866 0 0.26112 0.253635 0 0.244134 0.271575 0 0.281475 0.258408 0 0.266308 0.271928 0 0.277053 0.286001 0 0.321887 0.216337 0 0.303865 0.222921 0 0.289791 0.233692 0 0.296475 0.20412 0 0.313276 0.241233 0 0.345279 0.198682 0 0.354835 0.216788 0 0.363176 0.235876 0 0.363607 0.196904 0 0.376749 0.223506 0 0.335364 0.221742 0 0.299519 0.254346 0 0.331851 0.246347 0 0.318741 0.263146 0 0.332963 0.286378 0 0.311287 0.281356 0 0.294881 0.276147 0 0.3462 0.242774 0 0.365102 0.28435 0 0.369286 0.255765 0 0.338365 0.269934 0 0.355966 0.266876 0 0.203051 0.32937 0 0.223079 0.315171 0 0.222931 0.333599 0 0.215769 0.301263 0 0.243079 0.311839 0 0.246222 0.289535 0 0.275975 0.33306 0 0.245003 0.332066 0 0.278893 0.305465 0 0.262156 0.323354 0 0.260907 0.300612 0 0.198106 0.379474 0 0.210299 0.366375 0 0.238239 0.369113 0 0.221832 0.353023 0 0.199328 0.348385 0 0.243062 0.349884 0 0.285456 0.378756 0 0.280662 0.360335 0 0.262381 0.36947 0 0.262549 0.350668 0 0.293673 0.318255 0 0.314187 0.321248 0 0.299439 0.299122 0 0.318833 0.303205 0 0.359439 0.311173 0 0.343642 0.327744 0 0.349192 0.2
[...]
   <PointData  Vectors="vector">
    <DataArray Name="SortedParticle_ID" type="Int32" Format="ascii">
    0 1 2 3 4 5 6 7 8 9 10 11 12 13 14 15 16 17 18 19 20 21 22 23 24 25 26 27 28 29 30 31 32 33 34 35 36 37 38 39 40 41 42 43 44 45 46 47 48 49 50 51 52 53 54 55 56 57 58 59 60 61 62 63 64 65 66 67 68 69 70 71 72 73 74 75 76 77 78 79 80 81 82 83 84 85 86 87 88 89 90 91 92 93 94 95 96 97 98 99 100 101 102 103 104 105 106 107 108 109 110 111 112 113 114 115 116 117 118 119 120 121 122 123 124 125 126 127 128 129 130 131 132 133 134 135 136 137 138 139 140 141 142 143 144 145 146 147 148 149 150 151 152 153 154 155 156 157 158 159 160 161 162 163 164 165 166 167 168 169 170 171 172 173 174 175 176 177 178 179 180 181 182 183 184 185 186 187 188 189 190 191 192 193 194 195 196 197 198 199 200 201 202 203 204 205 206 207 208 209 210 211 212 213 214 215 216 217 218 219 220 221 222 223 224 225 226 227 228 229 230 231 232 233 234 235 236 237 238 239 240 241 242 243 244 245 246 247 248 249 250 251 252 253 254 255 256 257 258 259 260 261 262 263 264 265 266 267 268 269 270 271 272 273 274 275 276 277 278 279 280 281 282 283 284 285 286 287 288 289 290 291 292 293 294 295 296 297 298 299 300 301 302 303 304 305 306 307 308 309 310 311 312 313 314 315 316 317 318 319 320 321 322 323 324 325 326 327 328 329 330 331 332 333 334 335 336 337 338 339 340 341 342 343 344 345 346 347 348 349 350 351 352 353 354 355 356 357 358 359 360 361 362 363 364 365 366 367 368 369 370 371 372 373 374 375 376 377 378 379 380 381 382 383 384 385 386 387 388 389 390 391 392 393 394 395 396 397 398 399 400 401 402 403 404 405 406 407 408 409 410 411 412 413 414 415 416 417 418 419 420 421 422 423 424 425 426 427 428 429 430 431 432 433 434 435 436 437 438 439 440 441 442 443 444 445 446 447 448 449 450 451 452 453 454 455 456 457 458 459 460 461 462 463 464 465 466 467 468 469 470 471 472 473 474 475 476 477 478 479 480 481 482 483 484 485 486 487 488 489 490 491 492 493 494 495 496 497 498 499 500 501 502 503 504 505 506 507 508 509 510 511 512 513 514 515 516 517 518 519 520 521 522 523 524 525 526 527 528 529 530 531 532 533 534 535 536 537 538 539 540 541 542 543 544 545 546 547 548 549 550 551 552 553 554 555 556 557 558 559 560 561 562 563 564 565 566 567 568 569 570 571 572 573 574 575 576 577 578 579 580 581 582 583 584 585 586 587 588 589 590 591 592 593 594 595 596 597 598 599 600 601 602 603 604 605 606 607 608 609 610 611 612 613 614 615 616 617 618 619 620 621 622 623 624 625 626 627 628 629 630 631 632 633 634 635 636 637 638 639 640 641 642 643 644 645 646 647 648 649 650 651 652 653 654 655 656 657 658 659 660 661 662 663 664 665 666 667 668 669 670 671 672 673 674 675 676 677 678 679 680 681 682 683 684 685 686 687 688 689 690 691 692 693 694 695 696 697 698 699 700 701 702 703 704 705 706 707 708 709 710 711 712 713 714 715 716 717 718 719 720 721 722 723 724 725 726 727 728 729 730 731 732 733 734 735 736 737 738 739 740 741 742 743 744 745 746 747 748 749 750 751 752 753 754 755 756 757 758 759 760 761 762 763 764 765 766 767 768 769 770 771 772 773 774 775 776 777 778 779 780 781 782 783 784 785 786 787 788 789 790 791 792 793 794 795 796 797 798 799 800 801 802 803 804 805 806 807 808 809 810 811 812 813 814 815 816 817 818 819 820 821 822 823 824 825 826 827 828 829 830 831 832 833 834 835 836 837 838 839 840 841 842 843 844 845 846 847 848 849 850 851 852 853 854 855 856 857 858 859 860 861 862 863 864 865 866 867 868 869 870 871 872 873 874 875 876 877 878 879 880 881 882 883 884 885 886 887 888 889 890 891 892 893 894 895 896 897 898 899 900 901 902 903 904 905 906 907 908 909 910 911 912 913 914 915 916 917 918 919 920 921 922 923 924 925 926 927 928 929 930 931 932 933 934 935 936 937 938 939 940 941 942 943 944 945 946 947 948 949 950 951 952 953 954 955 956 957 958 959 960 961 962 963 964 965 966 967 968 969 970 971 972 973 974 975 976 977 978 979 980 981 982 983 984 985 986 987 988 989 990 991 992 993 994 995 996 997 998 999 1000 1001 1002 1003 1004 1005 1006 1007 1008 1009 1010 1011 1012 1013 1014 1015 1016 1017 1018 1019 1020 1021 1022 1023 1024 1025 1026 1027 1028 1029 1030 1031 1032 1033 1034 1035 1036 1037 1038 1039 1040 1041 1042 1043 1044 1045 1046 1047 1048 1049 1050 1051 1052 1053 1054 1055 1056 1057 1058 1059 1060 1061 1062 1063 1064 1065 1066 1067 1068 1069 1070 1071 1072 1073 1074 1075 1076 1077 1078 1079 1080 1081 1082 1083 1084 1085 1086 1087 1088 1089 1090 1091 1092 1093 1094 1095 1096 1097 1098 1099 1100 1101 1102 1103 1104 1105 1106 1107 1108 1109 1110 1111 1112 1113 1114 1115 1116 1117 1118 1119 1120 1121 1122 1123 1124 1125 1126 1127 1128 1129 1130 1131 1132 1133 1134 1135 1136 1137 1138 1139 1140 1141 1142 1143 1144 1145 1146 1147 1148 1149 1150 1151 1152 1153 1154 1155 1156 1157 1158 1159 1160 1161 1162 1163 1164 1165 1166 1167 1168 1169 1170 1171 1172 1173 1174 1175 1176 1177 1178 1179 1180 1181 1182 1183 1184 1185 1186 1187 1188 1189 1190 1191 1192 1193 1194 1195 1196 1197 1198 1199 1200 1201 1202 1203 1204 1205 1206 1207 1208 1209 1210 1211 1212 1213 1214 1215 1216 1217 1218 1219 1220 1221 1222 1223 1224 1225 1226 1227 1228 1229 1230 1231 1232 1233 1234 1235 1236 1237 1238 1239 1240 1241 1242 1243 1244 1245 1246 1247 1248 1249 1250 1251 1252 1253 1254 1255 1256 1257 1258 1259 1260 1261 1262 1263 1264 1265 1266 1267 1268 1269 1270 1271 1272 1273 1274 1275 1276 1277 1278 1279 1280 1281 1282 1283 1284 1285 1286 1287 1288 1289 1290 1291 1292 1293 1294 1295 1296 1297 1298 1299 1300 1301 1302 1303 1304 1305 1306 1307 1308 1309 1310 1311 1312 1313 1314 1315 1316 1317 1318 1319 1320 1321 1322 1323 1324 1325 1326 1327 1328 1329 1330 1331 1332 1333 1334 1335 1336 1337 1338 1339 1340 1341 1342 1343 1344 1345 1346 1347 1348 1349 1350 1351 1352 1353 1354 1355 1356 1357 1358 1359 1360 1361 1362 1363 1364 1365 1366 1367 1368 1369 1370 1371 1372 1373 1374 1375 1376 1377 1378 1379 1380 1381 1382 1383 1384 1385 1386 1387 1388 1389 1390 1391 1392 1393 1394 1395 1396 1397 1398 1399 1400 1401 1402 1403 1404 1405 1406 1407 1408 1409 1410 1411 1412 1413 1414 1415 1416 1417 1418 1419 1420 1421 1422 1423 1424 1425 1426 1427 1428 1429 1430 1431 1432 1433 1434 1435 1436 1437 1438 1439 1440 1441 1442 1443 1444 1445 1446 1447 1448 1449 1450 1451 1452 1453 1454 1455 1456 1457 1458 1459 1460 1461 1462 1463 1464 1465 1466 1467 1468 1469 1470 1471 1472 1473 1474 1475 1476 1477 1478 1479 1480 1481 1482 1483 1484 1485 1486 1487 1488 1489 1490 1491 1492 1493 1494 1495 1496 1497 1498 1499 1500 1501 1502 1503 1504 1505 1506 1507 1508 1509 1510 1511 1512 1513 1514 1515 1516 1517 1518 1519 1520 1521 1522 1523 1524 1525 1526 1527 1528 1529 1530 1531 1532 1533 1534 1535 1536 1537 1538 1539 1540 1541 1542 1543 1544 1545 1546 1547 1548 1549 1550 1551 1552 1553 1554 1555 1556 1557 1558 1559 1560 1561 1562 1563 1564 1565 1566 1567 1568 1569 1570 1571 1572 1573 1574 1575 1576 1577 1578 1579 1580 1581 1582 1583 1584 1585 1586 1587 1588 1589 1590 1591 1592 1593 1594 1595 1596 1597 1598 1599 1600 1601 1602 1603 1604 1605 1606 1607 1608 1609 1610 1611 1612 1613 1614 1615 1616 1617 1618 1619 1620 1621 1622 1623 1624 1625 1626 1627 1628 1629 1630 1631 1632 1633 1634 1635 1636 1637 1638 1639 1640 1641 1642 1643 1644 1645 1646 1647 1648 1649 1650 1651 1652 1653 1654 1655 1656 1657 1658 1659 1660 1661 1662 1663 1664 1665 1666 1667 1668 1669 1670 1671 1672 1673 1674 1675 1676 1677 1678 1679 1680 1681 1682 1683 1684 1685 1686 1687 1688 1689 1690 1691 1692 1693 1694 1695 1696 1697 1698 1699 1700 1701 1702 1703 1704 1705 1706 1707 1708 1709 1710 1711 1712 1713 1714 1715 1716 1717 1718 1719 1720 1721 1722 1723 1724 1725 1726 1727 1728 1729 1730 1731 1732 1733 1734 1735 1736 1737 1738 1739 1740 1741 1742 1743 1744 1745 1746 1747 1748 1749 1750 1751 1752 1753 1754 1755 1756 1757 1758 1759 1760 1761 1762 1763 1764 1765 1766 1767 1768 1769 1770 1771 1772 1773 1774 1775 1776 1777 1778 1779 1780 1781 1782 1783 1784 1785 1786 1787 1788 1789 1790 1791 1792 1793 1794 1795 1796 1797 1798 1799 1800 1801 1802 1803 1804 1805 1806 1807 1808 1809 1810 1811 1812 1813 1814 1815 1816 1817 1818 1819 1820 1821 1822 1823 1824 1825 1826 1827 1828 1829 1830 1831 1832 1833 1834 1835 1836 1837 1838 1839 1840 1841 1842 1843 1844 1845 1846 1847 1848 1849 1850 1851 1852 1853 1854 1855 1856 1857 1858 1859 1860 1861 1862 1863 1864 1865 1866 1867 1868 1869 1870 1871 1872 1873 1874 1875 1876 1877 1878 1879 1880 1881 1882 1883 1884 1885 1886 1887 1888 1889 1890 1891 1892 1893 1894 1895 1896 1897 1898 1899 1900 1901 1902 1903 1904 1905 1906 1907 1908 1909 1910 1911 1912 1913 1914 1915 1916 1917 1918 1919 1920 1921 1922 1923 1924 1925 1926 1927 1928 1929 1930 1931 1932 1933 1934 1935 1936 1937 1938 1939 1940 1941 1942 1943 1944 1945 1946 1947 1948 1949 1950 1951 1952 1953 1954 1955 1956 1957 1958 1959 1960 1961 1962 1963 1964 1965 1966 1967 1968 1969 1970 1971 1972 1973 1974 1975 1976 1977 1978 1979 1980 1981 1982 1983 1984 1985 1986 1987 1988 1989 1990 1991 1992 1993 1994 1995 1996 1997 1998 1999 2000 2001 2002 2003 2004 2005 2006 2007 2008 2009 2010 2011 2012 2013 2014 2015 2016 2017 2018 2019 2020 2021 2022 2023 2024 2025 2026 2027 2028 2029 2030 2031 2032 2033 2034 2035 2036 2037 2038 2039 2040 2041 2042 2043 2044 2045 2046 2047 2048 2049 2050 2051 2052 2053 2054 2055 2056 2057 2058 2059 2060 2061 2062 2063 2064 2065 2066 2067 2068 2069 2070 2071 2072 2073 2074 2075 2076 2077 2078 2079 2080 2081 2082 2083 2084 
    </DataArray>
    <DataArray Name="OriginalID" type="Int32" Format="ascii">
    7 5 6 1 0 2 3 4 355 42 78 41 79 77 43 150 114 149 115 113 151 36 73 37 72 109 145 108 144 223 186 187 185 221 222 293 257 259 294 331 258 330 295 329 181 216 217 180 324 325 289 288 253 252 39 75 74 38 110 146 147 111 1967 40 1404 76 1867 1862 300 234 148 766 112 218 219 182 183 327 255 326 290 291 254 523 528 220 1940 656 184 560 2013 1063 328 256 292 402 367 366 403 401 365 473 439 438 474 437 475 361 360 396 397 469 433 432 468 546 547 545 509 581 511 583 510 582 617 619 655 654 653 618 504 541 576 540 577 505 648 649 612 613 398 363 399 362 434 470 435 471 364 539 477 636 400 404 436 635 1172 1981 605 472 543 542 578 506 507 579 650 651 614 615 544 1911 574 476 981 580 508 616 369 652 1173 513 690 689 727 725 691 726 762 798 835 763 799 833 761 797 834 721 720 685 684 757 829 756 792 828 793 871 870 905 869 906 907 942 941 977 979 978 943 900 865 901 864 972 937 973 936 723 687 686 722 795 759 794 758 830 831 2108 688 1997 724 522 499 796 482 441 832 2092 760 867 902 866 903 975 939 938 974 537 549 561 904 868 517 572 1016 940 568 976 2031 1321 1775 1240 1538 923 1296 2073 1962 318 1297 452 128 82 448 1330 45 188 2270 2269 2046 29 307 359 1710 1739 276 322 268 1787 89 19 425 1433 2122 530 346 548 1517 892 10 178 492 102 338 317 353 86 1435 105 454 189 281 1115 2101 491 1039 270 305 462 2038 279 2184 13 527 393 176 494 11 92 385 1758 269 160 2166 1669 90 193 357 1910 311 34 429 337 136 96 197 32 62 54 2259 1507 1639 1753 348 893 2171 98 1660 1771 850 1675 312 354 1591 1812 1731 68 387 430 345 859 465 467 66 306 208 172 309 99 2260 308 1977 265 60 1745 2089 177 158 21 31 12 61 1870 486 495 162 52 1998 23 1924 2248 297 1995 1246 1994 1806 173 1958 63 1723 65 1690 246 1901 1820 132 347 339 26 129 2203 2164 48 169 155 46 123 201 83 25 95 56 2135 2159 119 235 138 205 85 47 22 498 456 1893 598 801 2140 2008 1105 536 1353 1236 1466 1889 302 126 826 418 412 1969 316 15 1952 1859 1265 1938 2003 2009 464 600 2067 557 526 407 1104 333 989 30 1920 808 768 1024 565 512 1971 199 206 314 67 1261 299 133 1427 134 532 18 64 70 303 159 57 1929 2027 1905 130 171 553 230 556 2012 1003 697 1881 671 1837 634 262 207 926 203 1182 570 764 609 2036 534 1197 551 1134 1892 595 728 2115 1887 842 490 802 666 1891 1925 480 1144 640 1972 2087 1200 1984 1956 518 1178 1017 620 645 601 1864 502 1897 2061 594 525 804 1540 874 1164 1915 1219 1595 729 1175 610 770 878 479 589 669 1299 633 623 478 661 730 608 1068 573 622 590 624 703 593 632 668 2001 514 2019 1340 837 741 1885 592 735 912 670 1243 873 969 1866 695 1344 844 1055 815 137 179 143 124 49 244 321 44 274 237 87 131 122 1902 53 118 233 389 59 194 352 392 417 1953 340 116 733 264 658 1062 2007 266 1944 228 424 332 914 1935 2005 117 224 229 104 58 91 17 16 139 1918 94 24 285 1861 282 2104 121 277 125 88 232 248 447 271 200 1821 195 1854 35 273 2116 14 153 2106 458 2057 275 1377 283 2074 238 251 261 239 214 1140 2059 538 419 141 1406 586 657 699 734 838 1966 373 9 1483 356 1780 2054 625 1022 662 1199 1256 629 663 1349 585 773 736 1142 968 708 1179 909 606 1037 707 1341 1277 1289 667 567 862 1985 1368 1873 1963 2060 1177 421 1000 659 101 1189 803 375 836 1387 2103 320 422 677 372 298 1320 627 706 626 1030 738 952 714 1217 674 1190 1231 709 1032 631 813 1066 1255 1101 810 809 1051 1014 1013 1049 1050 1015 1159 1122 1121 1157 1085 1087 1086 1158 1123 1008 1045 1009 1044 1081 1152 1153 1116 1117 1080 1047 1010 1011 1046 1155 1154 1082 1119 1083 1118 1048 566 1913 533 1894 1012 2102 1120 1084 1860 2065 1156 1882 1383 947 675 1033 2213 1543 2053 1130 1286 1922 481 1094 1744 1057 1168 2245 876 1127 1019 1756 1095 1059 1093 877 1053 1092 839 1128 2138 1165 948 1098 1090 1838 1126 1176 705 1950 1768 1736 1170 1658 1125 1061 2253 1605 672 554 587 2275 1135 1088 1375 1951 1370 1065 1103 1254 591 1629 710 946 911 984 1136 1525 891 779 1221 644 628 1475 2153 1264 1287 1056 1939 740 811 1091 1028 1250 1535 1054 1233 1279 846 2264 1242 1686 1020 1245 852 785 1326 858 1207 1441 918 986 784 1205 817 983 1132 1573 1270 1026 1646 1431 1096 2272 1485 1174 1424 1322 1798 1728 1021 1186 1550 1600 1432 896 1319 895 1476 1345 1514 791 1581 1665 1741 1624 1547 1534 1653 1443 1343 1378 1621 1511 1523 1413 1717 1457 1541 2276 1579 1631 1162 1448 1436 1491 1479 1369 1337 1570 1407 1709 1760 1782 1769 1129 1594 1645 985 1666 1811 1500 1680 1604 1803 1133 1533 1679 1691 1578 1743 1097 1567 2273 1572 1598 1668 1795 1719 1568 1695 376 2100 1430 1300 190 1180 1943 2090 488 191 226 1338 382 2056 249 889 1385 485 1001 351 489 493 284 450 166 231 20 349 2002 27 1954 240 241 55 51 2137 1933 212 2136 386 120 1732 2158 1990 93 415 2133 991 247 679 411 2125 84 967 1257 71 1664 1339 2050 1384 1241 1722 1805 712 2023 1829 142 1562 1890 1871 323 236 1928 2265 1687 1208 1965 1930 196 413 156 154 100 81 210 164 97 33 204 2157 313 202 50 1964 227 106 1766 167 1904 198 2058 174 1793 394 451 213 2170 2119 2150 380 806 341 135 1307 2091 379 152 1069 1721 165 286 170 301 140 377 161 28 1705 1310 263 1844 336 1311 1868 742 1318 1757 315 698 1992 395 1288 2145 851 682 778 789 1188 374 423 414 1937 358 1746 1259 1877 700 630 487 80 1108 211 552 457 1608 747 1141 745 1921 1329 702 713 771 769 665 701 1298 777 781 1211 752 1223 883 863 861 1278 746 1070 932 848 1185 381 1147 1194 931 647 1272 743 416 787 879 428 459 342 683 1262 1076 774 641 1508 455 1386 1067 1635 1107 807 1252 1114 267 1187 69 483 881 916 1496 1266 849 1216 783 1079 919 780 461 1396 744 997 1232 1031 715 1267 1301 1244 882 818 431 748 933 819 820 753 1064 935 1248 1738 965 996 1005 717 1213 1260 680 1036 962 1206 646 1309 814 776 887 215 296 854 786 1276 1555 1075 1202 1072 790 1312 1151 1212 1225 1258 1004 1215 1027 1408 1181 1932 718 884 1942 1284 1073 2024 1729 8 1029 1247 993 1201 1218 955 1163 1071 1193 1198 1888 885 1042 857 1280 920 929 755 1222 1374 749 1077 1171 1283 1274 1160 1058 1324 1251 921 1148 897 1275 1676 1184 1352 719 925 1350 1214 1365 1292 1419 930 788 1303 1146 1112 1606 971 954 1510 1209 1993 970 898 1505 1906 1619 390 2255 827 1235 886 1191 999 1111 998 1509 961 1991 453 1450 1498 1149 1043 958 1464 1007 1497 1422 1394 1531 1150 1366 888 927 960 1486 1192 963 1038 1295 1518 1224 924 1447 1423 1249 1323 1400 856 1389 1673 1549 1415 1363 934 1488 1204 1362 1334 1355 1530 1405 1239 1552 1196 1228 1294 1227 860 1034 1074 1041 1395 964 1452 992 1420 1539 1195 1454 1474 1354 928 1453 1388 1529 1333 1281 1718 1651 966 1403 956 1458 1109 1526 1560 1357 1421 1449 1576 1706 1652 1501 1707 1569 1399 1367 388 1446 1708 1503 1482 1504 1393 1410 1613 1544 1672 1563 1703 1314 2277 1360 1655 1692 460 1478 1610 1548 1575 1346 1524 1642 1545 1325 1348 1471 1402 1078 1617 1455 1462 1470 163 1409 1522 1625 1819 409 1429 1253 1463 1414 1643 1425 1364 1670 103 1392 1830 1418 391 1444 1851 1637 1720 1052 2268 2258 1681 1848 1590 1644 1779 1694 1565 1789 1358 1484 1824 1702 1671 1602 1566 384 1611 1592 1713 1688 1599 1831 1716 1791 1733 1715 2256 1914 1846 1850 304 2257 1725 1677 1761 2238 1842 1840 1975 2251 1131 2234 2197 242 2244 1786 1790 2185 2236 1750 2235 2237 2233 2070 1936 1804 2239 1800 463 1858 2123 2193 2186 1948 1926 405 2156 2163 2096 2223 2032 1304 1492 1778 1416 1390 1626 2025 1426 1381 1650 1512 1437 1683 1574 225 1513 1473 1494 1472 1461 449 1391 1640 350 1528 1580 1481 1438 1638 2222 1615 192 1596 1632 1282 1439 1335 1546 1628 1506 1616 1623 1588 1490 1557 1477 1661 1527 1647 319 420 1737 1900 1382 1356 1411 1499 378 1749 343 1843 1542 1609 1607 1589 1648 1809 310 1412 1417 1459 1553 1593 1633 1627 1551 1714 2254 1649 1682 1797 1818 1828 1583 1603 1654 272 1788 1493 1764 1614 1872 1698 1748 1839 2221 2240 1785 2232 2177 1835 2231 2097 2243 2209 1759 1742 1834 1957 1689 1773 1853 1814 1724 1810 1917 1428 1636 1582 1556 2075 1823 127 1847 2274 175 1684 1587 1601 1755 1641 1656 1585 1586 1577 2263 245 1727 2230 280 2262 1752 1659 344 2261 383 2182 563 2139 500 2055 529 1735 2218 1883 2250 243 2227 2082 1825 1657 2196 168 2155 2142 1774 2210 1023 1874 910 949 2192 988 2207 1813 1979 1704 1740 335 2180 157 2201 1700 2271 1783 1612 2247 2252 2242 1532 1697 1841 1770 1833 2191 1801 2216 1597 1630 1765 107 1751 1730 1973 1726 1822 1667 1754 2241 2028 1767 1468 1808 1747 1832 1976 2246 1169 2228 287 1693 496 2129 1699 2212 209 2160 1701 2088 1763 1796 250 2214 1712 1776 1781 1899 1734 1927 1857 1536 2229 1711 1561 2266 2267 1898 1674 1849 2121 1784 2026 1845 1836 531 1762 2205 1138 1018 2126 334 2128 2131 2154 1678 2174 2249 1060 2200 2199 2188 466 2149 2206 2190 2147 1886 2120 1772 2114 1947 278 944 2165 2181 2175 2211 2179 1982 915 426 2225 1816 2000 2220 2146 427 1777 2215 1799 1794 1361 2162 2208 410 2161 1875 1807 1792 2183 2029 1856 1826 2219 2226 1089 1960 2004 2173 982 2189 1855 1166 2085 2224 913 2217 1025 2169 2084 2194 1802 1852 875 2187 2204 731 2198 951 2132 2127 1878 597 2168 1945 2134 2021 1986 908 2016 2017 406 2130 1996 2068 987 2033 564 1124 2079 1987 2086 2047 2041 370 1880 1961 2195 676 1100 2043 2151 2015 694 501 1908 2014 2048 1102 800 2109 643 2107 621 639 408 2052 2077 2035 980 1137 2018 872 1909 1865 2064 521 2044 767 2118 2105 446 555 2010 1869 1161 637 1916 571 520 1999 1934 2069 2117 1912 841 1895 599 1879 443 1884 2045 1959 562 611 2078 1923 1968 2095 1896 843 2062 371 445 2110 765 2051 2022 442 1815 2098 2111 2113 1139 693 1903 1827 2072 2172 2202 2020 2143 2178 2141 2099 2124 1978 2152 2037 1919 2081 2083 2112 2006 1988 2148 2144 
    </DataArray>
    <DataArray Name="Density" type="Float32" Format="ascii">