<?xml version="1.0"?>
<VTKFile type="PolyData" version="0.1" byte_order="LittleEndian">
 <PolyData>
  <Piece Name ="WaterBlock" NumberOfPoints="2165" NumberOfVerts="2165">
   <Points>
    <DataArray Name="Position" type="Float32"  NumberOfComponents="3" Format="ascii">
    0.01 0.0348044 0 0.01 0.0148044 0 0.01 0.0548044 0 0.01 0.0948044 0 0.01 0.0748044 0 0.01 0.134804 0 0.01 0.114804 0 0.0116367 0.195582 0 0.01 0.154804 0 0.00798568 0.176472 0 0.05 0.0548044 0 0.03 0.0548044 0 0.03 0.0348044 0 0.05 0.0148044 0 0.03 0.0148044 0 0.05 0.0348044 0 0.09 0.0148044 0 0.09 0.0548044 0 0.09 0.0348044 0 0.07 0.0148044 0 0.07 0.0348044 0 0.07 0.0548044 0 0.03 0.0748044 0 0.03 0.0948044 0 0.05 0.0748044 0 0.05 0.0948044 0 0.09 0.0948044 0 0.09 0.0748044 0 0.07 0.0948044 0 0.07 0.0748044 0 0.13 0.0148044 0 0.13 0.0548044 0 0.13 0.0348044 0 0.11 0.0348044 0 0.11 0.0148044 0 0.11 0.0548044 0 0.17 0.0548044 0 0.19 0.0348044 0 0.19 0.0548044 0 0.15 0.0148044 0 0.19 0.0148044 0 0.17 0.0148044 0 0.17 0.0348044 0 0.15 0.0348044 0 0.15 0.0548044 0 0.11 0.0748044 0 0.11 0.0948044 0 0.13 0.0948044 0 0.13 0.0748044 0 0.17 0.0748044 0 0.19 0.0748044 0 0.15 0.0948044 0 0.15 0.0748044 0 0.19 0.0948044 0 0.17 0.0948044 0 0.05 0.134804 0 0.05 0.114804 0 0.03 0.134804 0 0.03 0.114804 0 0.07 0.134804 0 0.07 0.114804 0 0.09 0.134804 0 0.09 0.114804 0 0.0414951 0.182969 0 0.0273354 0.172587 0 0.0581665 0.172527 0 0.05 0.154804 0 0.03 0.154804 0 0.09 0.154804 0 0.088821 0.191109 0 0.102224 0.173045 0 0.0630926 0.190373 0 0.0810052 0.174027 0 0.07 0.154804 0 0.13 0.114804 0 0.11 0.114804 0 0.11 0.134804 0 0.13 0.134804 0 0.19 0.114804 0 0.15 0.114804 0 0.17 0.134804 0 0.19 0.134804 0 0.15 0.134804 0 0.17 0.114804 0 0.110067 0.195142 0 0.136843 0.174827 0 0.121224 0.178223 0 0.14521 0.194118 0 0.13 0.154804 0 0.11 0.154804 0 0.17 0.154804 0 0.183529 0.172389 0 0.191856 0.193684 0 0.157656 0.172769 0 0.170995 0.186624 0 0.15 0.154804 0 0.19 0.154804 0 0.23 0.0148044 0 0.21 0.0548044 0 0.23 0.0348044 0 0.23 0.0548044 0 0.21 0.0148044 0 0.21 0.0348044 0 0.25 0.0548044 0 0.27 0.0548044 0 0.25 0.0348044 0 0.27 0.0348044 0 0.27 0.0148044 0 0.25 0.0148044 0 0.21 0.0748044 0 0.23 0.0748044 0 0.23 0.0948044 0 0.21 0.0948044 0 0.27 0.0748044 0 0.25 0.0748044 0 0.25 0.0948044 0 0.27 0.0948044 0 0.31 0.0548044 0 0.33 0.0548044 0 0.29 0.0348044 0 0.33 0.0348044 0 0.31 0.0348044 0 0.31 0.0148044 0 0.29 0.0148044 0 0.33 0.0148044 0 0.29 0.0548044 0 0.37 0.0348044 0 0.35 0.0548044 0 0.35 0.0348044 0 0.37 0.0548044 0 0.35 0.0148044 0 0.37 0.0148044 0 0.33 0.0748044 0 0.29 0.0748044 0 0.33 0.0948044 0 0.31 0.0948044 0 0.29 0.0948044 0 0.31 0.0748044 0 0.37 0.0948044 0 0.35 0.0748044 0 0.35 0.0948044 0 0.37 0.0748044 0 0.23 0.114804 0 0.21 0.114804 0 0.23 0.134804 0 0.21 0.134804 0 0.25 0.134804 0 0.27 0.134804 0 0.25 0.114804 0 0.27 0.114804 0 0.23 0.154804 0 0.238429 0.195824 0 0.204456 0.176017 0 0.214849 0.191573 0 0.22484 0.172908 0 0.21 0.154804 0 0.260857 0.173026 0 0.273584 0.192251 0 0.243779 0.177779 0 0.25 0.154804 0 0.282149 0.174791 0 0.27 0.154804 0 0.29 0.114804 0 0.31 0.134804 0 0.29 0.134804 0 0.33 0.134804 0 0.31 0.114804 0 0.33 0.114804 0 0.37 0.134804 0 0.37 0.114804 0 0.35 0.114804 0 0.35 0.134804 0 0.33 0.154804 0 0.31 0.154804 0 0.322242 0.174868 0 0.312409 0.192831 0 0.301546 0.174061 0 0.29 0.154804 0 0.340427 0.174968 0 0.35 0.154804 0 0.37 0.154804 0 0.359116 0.174695 0 0.376415 0.190747 0 0.34659 0.195817 0 0.41 0.0148044 0 0.39 0.0148044 0 0.41 0.0348044 0 0.39 0.0348044 0 0.39 0.0548044 0 0.41 0.0548044 0 0.43 0.0148044 0 0.43 0.0548044 0 0.45 0.0548044 0 0.43 0.0348044 0 0.47 0.0548044 0 0.45 0.0348044 0 0.47 0.0148044 0 0.45 0.0148044 0 0.47 0.0348044 0 0.39 0.0948044 0 0.41 0.0748044 0 0.41 0.0948044 0 0.39 0.0748044 0 0.47 0.0948044 0 0.47 0.0748044 0 0.43 0.0748044 0 0.45 0.0748044 0 0.45 0.0948044 0 0.43 0.0948044 0 0.49 0.0148044 0 0.49 0.0348044 0 0.51 0.0348044 0 0.49 0.0548044 0 0.51 0.0548044 0 0.51 0.0148044 0 0.55 0.0148044 0 0.53 0.0348044 0 0.53 0.0548044 0 0.55 0.0348044 0 0.55 0.0548044 0 0.53 0.0148044 0 0.49 0.0948044 0 0.51 0.0748044 0 0.49 0.0748044 0 0.51 0.0948044 0 0.55 0.0948044 0 0.53 0.0748044 0 0.55 0.0748044 0 0.53 0.0948044 0 0.39 0.134804 0 0.41 0.134804 0 0.41 0.114804 0 0.39 0.114804 0 0.45 0.114804 0 0.45 0.134804 0 0.43 0.114804 0 0.43 0.134804 0 0.47 0.114804 0 0.47 0.134804 0 0.39 0.154804 0 0.402005 0.174321 0 0.379692 0.173581 0 0.42 0.176642 0 0.41 0.154804 0 0.400661 0.19258 0 0.458626 0.177067 0 0.438531 0.172896 0 0.43 0.154804 0 0.47 0.154804 0 0.45 0.154804 0 0.439814 0.19437 0 0.49 0.114804 0 0.49 0.134804 0 0.51 0.134804 0 0.51 0.114804 0 0.55 0.134804 0 0.55 0.114804 0 0.53 0.114804 0 0.53 0.134804 0 0.497011 0.17473 0 0.49 0.154804 0 0.51 0.154804 0 0.514275 0.175784 0 0.475302 0.173348 0 0.489888 0.193581 0 0.56302 0.194567 0 0.55 0.154804 0 0.53 0.154804 0 0.55462 0.178243 0 0.537192 0.17172 0 0.525467 0.191836 0 0.00994371 0.228846 0 0.01024 0.261805 0 0.00822617 0.294848 0 0.0116145 0.339622 0 0.00809797 0.359269 0 0.035711 0.234788 0 0.0155465 0.211776 0 0.033573 0.199295 0 0.0376264 0.217672 0 0.0563286 0.236496 0 0.0552063 0.208423 0 0.0684228 0.223666 0 0.0766578 0.205745 0 0.0986336 0.2113 0 0.092393 0.227681 0 0.0582302 0.286974 0 0.0164184 0.27594 0 0.0154601 0.244905 0 0.0363476 0.252429 0 0.0579981 0.267648 0 0.0393864 0.269178 0 0.0785141 0.276846 0 0.0832706 0.242079 0 0.0878646 0.261336 0 0.103536 0.275144 0 0.0658347 0.251578 0 0.129132 0.203615 0 0.132281 0.235532 0 0.11843 0.218239 0 0.14451 0.217537 0 0.111451 0.237652 0 0.184408 0.21256 0 0.173162 0.241228 0 0.168882 0.220535 0 0.151776 0.234789 0 0.161872 0.202293 0 0.190391 0.236855 0 0.121198 0.272484 0 0.145667 0.285872 0 0.107023 0.253575 0 0.131277 0.254161 0 0.143296 0.267277 0 0.165897 0.285997 0 0.187652 0.258773 0 0.157634 0.254036 0 0.187444 0.281322 0 0.169732 0.268468 0 0.0321423 0.2879 0 0.0436431 0.300237 0 0.04054 0.317146 0 0.0165784 0.323997 0 0.017133 0.309222 0 0.0924163 0.314594 0 0.0673727 0.30666 0 0.0604937 0.3244 0 0.0803321 0.326494 0 0.101724 0.294517 0 0.0812727 0.294341 0 0.0388283 0.375885 0 0.0193158 0.374645 0 0.028963 0.351381 0 0.0459283 0.359161 0 0.0389424 0.335209 0 0.0771469 0.379699 0 0.0815941 0.35183 0 0.0973007 0.378928 0 0.0597292 0.342869 0 0.0991688 0.359347 0 0.0672585 0.361476 0 0.0958927 0.338129 0 0.125348 0.291679 0 0.140892 0.304077 0 0.116826 0.326136 0 0.113045 0.309011 0 0.136574 0.320215 0 0.166076 0.322665 0 0.182568 0.301266 0 0.162961 0.306888 0 0.187882 0.320266 0 0.134057 0.35037 0 0.116727 0.366372 0 0.134536 0.373328 0 0.145679 0.335143 0 0.116595 0.343232 0 0.156696 0.3761 0 0.174656 0.35716 0 0.165867 0.3405 0 0.189402 0.340389 0 0.195333 0.363171 0 0.178867 0.375758 0 0.15235 0.35791 0 0.00917925 0.408078 0 0.0093948 0.387398 0 0.0114615 0.428162 0 0.0116407 0.447284 0 0.00830242 0.465985 0 0.00681491 0.488583 0 0.0100367 0.511273 0 0.00932223 0.551445 0 0.00943857 0.52935 0 0.0447979 0.422573 0 0.0558367 0.402131 0 0.037587 0.3945 0 0.0273761 0.407465 0 0.100531 0.411136 0 0.0928845 0.395089 0 0.0799583 0.421578 0 0.0600075 0.382805 0 0.0734065 0.404874 0 0.0481649 0.450602 0 0.0302656 0.453518 0 0.0301749 0.431107 0 0.0993285 0.454861 0 0.0603855 0.427261 0 0.0883145 0.470378 0 0.0714287 0.469176 0 0.0824908 0.444775 0 0.0643703 0.447481 0 0.0971456 0.431837 0 0.141819 0.392185 0 0.117891 0.42517 0 0.119583 0.387915 0 0.138676 0.415187 0 0.12026 0.40429 0 0.191974 0.39394 0 0.179317 0.409285 0 0.154426 0.407771 0 0.167562 0.39235 0 0.195044 0.422544 0 0.169772 0.424506 0 0.133983 0.436513 0 0.116376 0.445819 0 0.135729 0.461026 0 0.118852 0.467403 0 0.191531 0.460064 0 0.152124 0.455704 0 0.174738 0.468161 0 0.187629 0.439382 0 0.152677 0.43407 0 0.169499 0.446828 0 0.0269153 0.487443 0 0.0330589 0.472236 0 0.0277501 0.506125 0 0.0453161 0.512708 0 0.0499601 0.492811 0 0.053154 0.472712 0 0.0860946 0.50864 0 0.0650871 0.508337 0 0.0934569 0.49182 0 0.0709881 0.489965 0 0.0506674 0.550559 0 0.0347375 0.529796 0 0.056416 0.533197 0 0.0269999 0.542724 0 0.0927326 0.530271 0 0.0941382 0.551959 0 0.0745632 0.549427 0 0.0737044 0.528218 0 0.109918 0.505177 0 0.149087 0.505053 0 0.128314 0.516162 0 0.127503 0.494989 0 0.137828 0.482857 0 0.108688 0.481417 0 0.16541 0.492529 0 0.162547 0.515123 0 0.183835 0.507805 0 0.156772 0.476773 0 0.184664 0.485959 0 0.144279 0.526417 0 0.128647 0.538613 0 0.114586 0.547142 0 0.107822 0.524552 0 0.139055 0.558305 0 0.152793 0.546783 0 0.167923 0.541478 0 0.188049 0.553375 0 0.179089 0.528287 0 0.225153 0.209493 0 0.206358 0.230468 0 0.225454 0.228579 0 0.202848 0.210633 0 0.256915 0.200451 0 0.280849 0.212874 0 0.244231 0.219875 0 0.273116 0.237195 0 0.262228 0.21962 0 0.239765 0.261481 0 0.240748 0.243283 0 0.21991 0.249788 0 0.219997 0.272264 0 0.204799 0.283945 0 0.204373 0.258078 0 0.238428 0.28167 0 0.256278 0.276379 0 0.274252 0.284655 0 0.25844 0.246122 0 0.269701 0.261609 0 0.288186 0.266504 0 0.3032 0.215139 0 0.328628 0.200439 0 0.293435 0.196601 0 0.331413 0.242013 0 0.319054 0.221574 0 0.311483 0.240969 0 0.29098 0.231866 0 0.354419 0.224042 0 0.374889 0.219782 0 0.361434 0.202255 0 0.338007 0.218852 0 0.371239 0.238531 0 0.317006 0.276358 0 0.317909 0.259383 0 0.294124 0.251736 0 0.300403 0.281794 0 0.372344 0.277715 0 0.351977 0.277006 0 0.34054 0.260672 0 0.33566 0.283683 0 0.351215 0.244955 0 0.366814 0.258802 0 0.233194 0.324348 0 0.220335 0.296572 0 0.215664 0.320073 0 0.203161 0.306662 0 0.238301 0.302177 0 0.283054 0.327159 0 0.252562 0.315565 0 0.276659 0.311723 0 0.262992 0.334042 0 0.259691 0.298621 0 0.225098 0.34275 0 0.204546 0.338112 0 0.213394 0.360293 0 0.225109 0.376194 0 0.236558 0.360926 0 0.255241 0.361028 0 0.278328 0.368754 0 0.246646 0.340899 0 0.273239 0.350415 0 0.257575 0.38034 0 0.329155 0.318837 0 0.303979 0.321526 0 0.289182 0.2975 0 0.307912 0.304847 0 0.325051 0.298953 0 0.369736 0.333503 0 0.360912 0.297545 0 0.375316 0.316275 0 0.352542 0.323681 0 0.347114 0.306018 0 0.31
[...]
   <PointData  Vectors="vector">
    <DataArray Name="SortedParticle_ID" type="Int32" Format="ascii">
    0 1 2 3 4 5 6 7 8 9 10 11 12 13 14 15 16 17 18 19 20 21 22 23 24 25 26 27 28 29 30 31 32 33 34 35 36 37 38 39 40 41 42 43 44 45 46 47 48 49 50 51 52 53 54 55 56 57 58 59 60 61 62 63 64 65 66 67 68 69 70 71 72 73 74 75 76 77 78 79 80 81 82 83 84 85 86 87 88 89 90 91 92 93 94 95 96 97 98 99 100 101 102 103 104 105 106 107 108 109 110 111 112 113 114 115 116 117 118 119 120 121 122 123 124 125 126 127 128 129 130 131 132 133 134 135 136 137 138 139 140 141 142 143 144 145 146 147 148 149 150 151 152 153 154 155 156 157 158 159 160 161 162 163 164 165 166 167 168 169 170 171 172 173 174 175 176 177 178 179 180 181 182 183 184 185 186 187 188 189 190 191 192 193 194 195 196 197 198 199 200 201 202 203 204 205 206 207 208 209 210 211 212 213 214 215 216 217 218 219 220 221 222 223 224 225 226 227 228 229 230 231 232 233 234 235 236 237 238 239 240 241 242 243 244 245 246 247 248 249 250 251 252 253 254 255 256 257 258 259 260 261 262 263 264 265 266 267 268 269 270 271 272 273 274 275 276 277 278 279 280 281 282 283 284 285 286 287 288 289 290 291 292 293 294 295 296 297 298 299 300 301 302 303 304 305 306 307 308 309 310 311 312 313 314 315 316 317 318 319 320 321 322 323 324 325 326 327 328 329 330 331 332 333 334 335 336 337 338 339 340 341 342 343 344 345 346 347 348 349 350 351 352 353 354 355 356 357 358 359 360 361 362 363 364 365 366 367 368 369 370 371 372 373 374 375 376 377 378 379 380 381 382 383 384 385 386 387 388 389 390 391 392 393 394 395 396 397 398 399 400 401 402 403 404 405 406 407 408 409 410 411 412 413 414 415 416 417 418 419 420 421 422 423 424 425 426 427 428 429 430 431 432 433 434 435 436 437 438 439 440 441 442 443 444 445 446 447 448 449 450 451 452 453 454 455 456 457 458 459 460 461 462 463 464 465 466 467 468 469 470 471 472 473 474 475 476 477 478 479 480 481 482 483 484 485 486 487 488 489 490 491 492 493 494 495 496 497 498 499 500 501 502 503 504 505 506 507 508 509 510 511 512 513 514 515 516 517 518 519 520 521 522 523 524 525 526 527 528 529 530 531 532 533 534 535 536 537 538 539 540 541 542 543 544 545 546 547 548 549 550 551 552 553 554 555 556 557 558 559 560 561 562 563 564 565 566 567 568 569 570 571 572 573 574 575 576 577 578 579 580 581 582 583 584 585 586 587 588 589 590 591 592 593 594 595 596 597 598 599 600 601 602 603 604 605 606 607 608 609 610 611 612 613 614 615 616 617 618 619 620 621 622 623 624 625 626 627 628 629 630 631 632 633 634 635 636 637 638 639 640 641 642 643 644 645 646 647 648 649 650 651 652 653 654 655 656 657 658 659 660 661 662 663 664 665 666 667 668 669 670 671 672 673 674 675 676 677 678 679 680 681 682 683 684 685 686 687 688 689 690 691 692 693 694 695 696 697 698 699 700 701 702 703 704 705 706 707 708 709 710 711 712 713 714 715 716 717 718 719 720 721 722 723 724 725 726 727 728 729 730 731 732 733 734 735 736 737 738 739 740 741 742 743 744 745 746 747 748 749 750 751 752 753 754 755 756 757 758 759 760 761 762 763 764 765 766 767 768 769 770 771 772 773 774 775 776 777 778 779 780 781 782 783 784 785 786 787 788 789 790 791 792 793 794 795 796 797 798 799 800 801 802 803 804 805 806 807 808 809 810 811 812 813 814 815 816 817 818 819 820 821 822 823 824 825 826 827 828 829 830 831 832 833 834 835 836 837 838 839 840 841 842 843 844 845 846 847 848 849 850 851 852 853 854 855 856 857 858 859 860 861 862 863 864 865 866 867 868 869 870 871 872 873 874 875 876 877 878 879 880 881 882 883 884 885 886 887 888 889 890 891 892 893 894 895 896 897 898 899 900 901 902 903 904 905 906 907 908 909 910 911 912 913 914 915 916 917 918 919 920 921 922 923 924 925 926 927 928 929 930 931 932 933 934 935 936 937 938 939 940 941 942 943 944 945 946 947 948 949 950 951 952 953 954 955 956 957 958 959 960 961 962 963 964 965 966 967 968 969 970 971 972 973 974 975 976 977 978 979 980 981 982 983 984 985 986 987 988 989 990 991 992 993 994 995 996 997 998 999 1000 1001 1002 1003 1004 1005 1006 1007 1008 1009 1010 1011 1012 1013 1014 1015 1016 1017 1018 1019 1020 1021 1022 1023 1024 1025 1026 1027 1028 1029 1030 1031 1032 1033 1034 1035 1036 1037 1038 1039 1040 1041 1042 1043 1044 1045 1046 1047 1048 1049 1050 1051 1052 1053 1054 1055 1056 1057 1058 1059 1060 1061 1062 1063 1064 1065 1066 1067 1068 1069 1070 1071 1072 1073 1074 1075 1076 1077 1078 1079 1080 1081 1082 1083 1084 1085 1086 1087 1088 1089 1090 1091 1092 1093 1094 1095 1096 1097 1098 1099 1100 1101 1102 1103 1104 1105 1106 1107 1108 1109 1110 1111 1112 1113 1114 1115 1116 1117 1118 1119 1120 1121 1122 1123 1124 1125 1126 1127 1128 1129 1130 1131 1132 1133 1134 1135 1136 1137 1138 1139 1140 1141 1142 1143 1144 1145 1146 1147 1148 1149 1150 1151 1152 1153 1154 1155 1156 1157 1158 1159 1160 1161 1162 1163 1164 1165 1166 1167 1168 1169 1170 1171 1172 1173 1174 1175 1176 1177 1178 1179 1180 1181 1182 1183 1184 1185 1186 1187 1188 1189 1190 1191 1192 1193 1194 1195 1196 1197 1198 1199 1200 1201 1202 1203 1204 1205 1206 1207 1208 1209 1210 1211 1212 1213 1214 1215 1216 1217 1218 1219 1220 1221 1222 1223 1224 1225 1226 1227 1228 1229 1230 1231 1232 1233 1234 1235 1236 1237 1238 1239 1240 1241 1242 1243 1244 1245 1246 1247 1248 1249 1250 1251 1252 1253 1254 1255 1256 1257 1258 1259 1260 1261 1262 1263 1264 1265 1266 1267 1268 1269 1270 1271 1272 1273 1274 1275 1276 1277 1278 1279 1280 1281 1282 1283 1284 1285 1286 1287 1288 1289 1290 1291 1292 1293 1294 1295 1296 1297 1298 1299 1300 1301 1302 1303 1304 1305 1306 1307 1308 1309 1310 1311 1312 1313 1314 1315 1316 1317 1318 1319 1320 1321 1322 1323 1324 1325 1326 1327 1328 1329 1330 1331 1332 1333 1334 1335 1336 1337 1338 1339 1340 1341 1342 1343 1344 1345 1346 1347 1348 1349 1350 1351 1352 1353 1354 1355 1356 1357 1358 1359 1360 1361 1362 1363 1364 1365 1366 1367 1368 1369 1370 1371 1372 1373 1374 1375 1376 1377 1378 1379 1380 1381 1382 1383 1384 1385 1386 1387 1388 1389 1390 1391 1392 1393 1394 1395 1396 1397 1398 1399 1400 1401 1402 1403 1404 1405 1406 1407 1408 1409 1410 1411 1412 1413 1414 1415 1416 1417 1418 1419 1420 1421 1422 1423 1424 1425 1426 1427 1428 1429 1430 1431 1432 1433 1434 1435 1436 1437 1438 1439 1440 1441 1442 1443 1444 1445 1446 1447 1448 1449 1450 1451 1452 1453 1454 1455 1456 1457 1458 1459 1460 1461 1462 1463 1464 1465 1466 1467 1468 1469 1470 1471 1472 1473 1474 1475 1476 1477 1478 1479 1480 1481 1482 1483 1484 1485 1486 1487 1488 1489 1490 1491 1492 1493 1494 1495 1496 1497 1498 1499 1500 1501 1502 1503 1504 1505 1506 1507 1508 1509 1510 1511 1512 1513 1514 1515 1516 1517 1518 1519 1520 1521 1522 1523 1524 1525 1526 1527 1528 1529 1530 1531 1532 1533 1534 1535 1536 1537 1538 1539 1540 1541 1542 1543 1544 1545 1546 1547 1548 1549 1550 1551 1552 1553 1554 1555 1556 1557 1558 1559 1560 1561 1562 1563 1564 1565 1566 1567 1568 1569 1570 1571 1572 1573 1574 1575 1576 1577 1578 1579 1580 1581 1582 1583 1584 1585 1586 1587 1588 1589 1590 1591 1592 1593 1594 1595 1596 1597 1598 1599 1600 1601 1602 1603 1604 1605 1606 1607 1608 1609 1610 1611 1612 1613 1614 1615 1616 1617 1618 1619 1620 1621 1622 1623 1624 1625 1626 1627 1628 1629 1630 1631 1632 1633 1634 1635 1636 1637 1638 1639 1640 1641 1642 1643 1644 1645 1646 1647 1648 1649 1650 1651 1652 1653 1654 1655 1656 1657 1658 1659 1660 1661 1662 1663 1664 1665 1666 1667 1668 1669 1670 1671 1672 1673 1674 1675 1676 1677 1678 1679 1680 1681 1682 1683 1684 1685 1686 1687 1688 1689 1690 1691 1692 1693 1694 1695 1696 1697 1698 1699 1700 1701 1702 1703 1704 1705 1706 1707 1708 1709 1710 1711 1712 1713 1714 1715 1716 1717 1718 1719 1720 1721 1722 1723 1724 1725 1726 1727 1728 1729 1730 1731 1732 1733 1734 1735 1736 1737 1738 1739 1740 1741 1742 1743 1744 1745 1746 1747 1748 1749 1750 1751 1752 1753 1754 1755 1756 1757 1758 1759 1760 1761 1762 1763 1764 1765 1766 1767 1768 1769 1770 1771 1772 1773 1774 1775 1776 1777 1778 1779 1780 1781 1782 1783 1784 1785 1786 1787 1788 1789 1790 1791 1792 1793 1794 1795 1796 1797 1798 1799 1800 1801 1802 1803 1804 1805 1806 1807 1808 1809 1810 1811 1812 1813 1814 1815 1816 1817 1818 1819 1820 1821 1822 1823 1824 1825 1826 1827 1828 1829 1830 1831 1832 1833 1834 1835 1836 1837 1838 1839 1840 1841 1842 1843 1844 1845 1846 1847 1848 1849 1850 1851 1852 1853 1854 1855 1856 1857 1858 1859 1860 1861 1862 1863 1864 1865 1866 1867 1868 1869 1870 1871 1872 1873 1874 1875 1876 1877 1878 1879 1880 1881 1882 1883 1884 1885 1886 1887 1888 1889 1890 1891 1892 1893 1894 1895 1896 1897 1898 1899 1900 1901 1902 1903 1904 1905 1906 1907 1908 1909 1910 1911 1912 1913 1914 1915 1916 1917 1918 1919 1920 1921 1922 1923 1924 1925 1926 1927 1928 1929 1930 1931 1932 1933 1934 1935 1936 1937 1938 1939 1940 1941 1942 1943 1944 1945 1946 1947 1948 1949 1950 1951 1952 1953 1954 1955 1956 1957 1958 1959 1960 1961 1962 1963 1964 1965 1966 1967 1968 1969 1970 1971 1972 1973 1974 1975 1976 1977 1978 1979 1980 1981 1982 1983 1984 1985 1986 1987 1988 1989 1990 1991 1992 1993 1994 1995 1996 1997 1998 1999 2000 2001 2002 2003 2004 2005 2006 2007 2008 2009 2010 2011 2012 2013 2014 2015 2016 2017 2018 2019 2020 2021 2022 2023 2024 2025 2026 2027 2028 2029 2030 2031 2032 2033 2034 2035 2036 2037 2038 2039 2040 2041 2042 2043 2044 2045 2046 2047 2048 2049 2050 2051 2052 2053 2054 2055 2056 2057 2058 2059 2060 2061 2062 2063 2064 2065 2066 2067 2068 2069 2070 2071 2072 2073 2074 2075 2076 2077 2078 2079 2080 2081 2082 2083 2084 2085 2086 2087 2088 2089 2090 2091 2092 2093 2094 2095 2096 2097 2098 2099 2100 2101 2102 2103 2104 2105 2106 2107 2108 2109 2110 2111 2112 2113 2114 2115 2116 2117 2118 2119 2120 2121 2122 2123 2124 2125 2126 2127 2128 2129 2130 2131 2132 2133 2134 2135 2136 2137 2138 2139 2140 2141 2142 2143 2144 2145 2146 2147 2148 2149 2150 2151 2152 2153 2154 2155 2156 2157 2158 2159 2160 2161 2162 2163 2164 
    </DataArray>
    <DataArray Name="OriginalID" type="Int32" Format="ascii">
    2 1 3 5 4 7 6 431 0 281 75 39 38 73 37 74 145 147 146 109 110 111 40 41 76 77 149 148 113 112 217 219 218 182 181 183 291 326 327 253 325 289 290 254 255 184 185 221 220 292 328 257 256 329 293 79 78 43 42 115 114 151 150 2090 1928 859 72 36 144 1181 1146 69 930 108 222 186 187 223 330 258 295 331 259 294 82 1027 1208 893 216 180 288 1112 1111 1384 1180 252 324 397 363 398 399 361 362 435 471 434 470 469 433 364 400 401 365 472 436 437 473 543 579 506 578 542 541 505 577 507 650 615 614 651 613 649 580 508 581 545 509 544 653 616 617 652 402 366 403 367 439 475 438 474 396 1202 1191 884 1225 360 1004 790 1187 432 1562 468 510 547 511 583 546 582 655 654 618 619 576 540 996 1075 717 504 1267 612 648 935 749 962 721 685 722 686 687 723 757 759 795 758 831 794 829 793 830 689 724 725 688 833 832 760 796 797 761 865 866 902 867 903 901 973 938 939 974 975 937 869 904 868 905 977 940 976 941 691 727 726 690 798 799 762 763 834 835 684 885 1042 1206 720 1215 1218 993 756 828 792 920 870 871 907 906 979 978 942 943 1064 864 900 1029 857 1077 1352 972 936 1248 1198 827 84 461 411 454 467 485 1995 494 63 2259 1867 10 348 428 346 2101 527 1901 1722 1675 2269 385 1971 92 314 359 2038 19 98 1115 338 718 236 267 312 1073 1942 67 134 128 302 317 89 268 355 29 307 1690 491 276 215 393 357 1710 1739 13 1905 193 270 2046 1771 189 279 337 269 197 322 159 1669 11 86 206 102 126 90 2166 45 64 203 199 160 18 130 143 179 1861 70 2027 87 54 133 462 336 2265 459 429 1723 455 1635 1943 311 354 34 1758 31 176 1998 62 1910 2260 297 489 208 1591 306 309 1870 1745 162 122 158 32 136 177 24 58 96 104 49 46 123 60 23 169 83 52 91 201 303 155 488 430 296 495 483 486 1958 265 132 1806 68 1660 1977 1812 129 172 66 308 25 2089 47 61 12 99 53 26 131 21 119 166 51 1994 56 125 205 55 1930 2159 970 8 1932 1241 1212 788 1227 1034 971 2024 453 2184 1753 57 2073 305 246 390 1209 1246 992 1408 1005 1280 1292 999 1196 1303 998 925 1235 954 1228 964 1395 1074 966 1419 928 1224 1041 1294 963 266 353 228 230 1775 15 105 318 389 2171 274 116 124 59 44 137 237 194 2007 14 1078 2100 492 2050 1281 1651 1355 856 1109 956 1962 188 892 458 299 1935 961 452 1195 1310 923 960 1374 1486 1260 927 1214 921 1192 860 1509 1222 1204 888 1452 1365 1474 1354 1518 1038 924 1149 1497 1485 929 755 1071 1251 886 2255 1283 1350 897 1174 958 1270 895 1148 791 1768 2245 947 1383 1055 1333 1453 1718 934 1362 1454 1348 1323 1522 1239 1447 1529 1403 1530 1334 1363 1455 1388 1364 1617 1462 1007 1249 1464 1150 1275 1322 1838 1098 1595 876 1744 1295 1186 1476 1424 1366 1431 1286 1092 1798 352 1821 118 233 321 9 153 282 283 238 94 1902 235 17 195 200 275 1918 285 35 1297 117 456 1929 273 1430 1261 1507 1420 1236 1498 214 244 448 2116 320 251 1339 1321 1284 1639 1330 48 154 85 138 16 88 271 139 33 2074 1854 2150 121 174 2104 232 156 1793 447 248 198 2106 1953 2060 229 412 2057 2005 826 300 1458 207 2058 234 1307 1377 1944 1240 171 1510 1940 1312 1466 1552 1399 1423 1409 1421 1414 1418 1482 1488 1446 1606 1505 1471 898 1405 1300 1819 1392 1402 1415 1410 1378 1394 1531 1400 1043 1432 1443 1057 1915 1728 1319 1573 1393 1413 1560 1422 1343 1457 1345 1621 1369 1358 1619 1367 1470 1463 1429 1528 1412 1425 1438 1356 1499 1444 1450 163 1253 1282 1335 1357 1670 1472 1830 1337 1407 1448 1569 1389 1449 1541 1549 1631 1709 1643 1708 1545 1673 1548 1563 1314 1610 1501 1574 1500 1045 1009 1010 1047 1011 1046 1154 1082 1083 1118 1153 1155 1117 1081 1119 1048 1013 1012 1049 1084 1120 1156 1121 1157 1085 1051 1014 1050 1015 1122 1086 1158 1159 1123 1087 719 1044 896 1247 1008 1184 1274 1116 1324 1152 1080 1026 1132 1163 1922 1160 1096 1171 2272 1127 1058 2138 2264 1094 1093 1095 874 1176 1168 1736 983 1020 1676 1756 1165 1646 1135 948 1053 839 912 1951 1056 1054 1888 2053 1885 1164 1090 911 1939 1950 1091 1059 1686 986 1061 877 1344 1128 1264 2213 1130 1170 1525 1125 1543 1088 2253 1021 1126 984 946 1629 1019 1535 1136 2153 1605 1760 1717 1162 1511 1436 1514 2275 1741 1653 1550 1370 1581 1658 1579 1533 1624 1526 1491 1811 1523 1534 1479 1547 1665 1600 1129 1782 1666 985 1604 1570 1576 1672 1133 1680 1679 1594 1803 1769 1691 1695 1097 1572 1668 2273 1645 1848 1637 1743 1702 1720 2256 1052 1671 1828 2221 2258 1789 2268 1914 1715 1842 1773 1682 1841 1846 2254 2251 2243 2244 1724 1761 2240 2232 2238 2210 2182 1840 2197 2231 2234 2239 2237 2233 2225 2192 2209 2236 2207 2235 1792 2219 2201 1855 2200 2165 2212 1018 2121 1169 2146 2173 1799 2204 2211 1875 2220 1166 2154 1138 1023 2120 988 1883 2175 2194 2162 1025 2183 2084 1060 2123 1903 2088 2056 347 465 323 493 284 191 1731 339 65 345 387 2164 247 173 249 95 1555 1829 1924 374 2248 1820 2125 93 71 382 142 120 2203 2135 231 2023 27 20 196 2137 50 2133 97 241 1990 450 212 1871 2002 100 240 170 140 1954 2157 1687 1757 1664 226 1844 349 1933 395 301 2158 286 351 1805 1705 416 381 342 1992 263 379 165 386 2136 1921 415 2145 1890 28 1721 161 373 1732 1964 1608 315 1766 380 210 202 167 277 313 81 1904 204 164 101 2103 2091 152 2119 1965 106 2170 423 135 298 239 261 451 1985 1837 1963 178 1296 264 332 1729 1368 2059 394 372 1387 1517 1539 392 1433 1427 1435 227 413 377 1868 80 224 2054 422 1966 487 141 358 341 316 356 211 1746 1483 457 1780 213 414 375 1937 424 1406 262 1993 1404 22 419 1873 30 340 421 417 2270 418 425 1787 388 1991 409 1439 1381 1494 1473 1382 1524 1411 1542 1304 1538 1843 1417 1527 1557 1490 1426 1503 1437 1707 1650 1706 1513 1575 1504 1346 1616 1642 1683 1626 1609 1661 343 376 1477 1587 1512 1484 1632 1596 1360 1851 1906 225 1390 1506 391 1647 1391 2025 1325 384 190 449 1900 1625 378 103 460 1628 1607 1461 1478 1719 1416 1468 1492 1532 1428 1737 1694 350 420 1749 1536 319 1580 2263 383 1633 1795 1565 1568 1481 2277 1655 1544 1615 1556 2276 1553 1751 1599 1640 1659 192 1623 1611 1692 1778 1613 1703 1588 2274 1652 1567 1644 1681 1578 1598 1713 1589 1546 1603 1823 1601 1582 310 1697 1593 1824 1636 1602 1585 1493 1630 1597 1684 1586 1727 1872 344 1577 1641 2075 127 1459 1551 1656 1831 1748 1583 1654 1752 1648 1839 1797 1791 2222 1765 1742 1689 1788 1698 304 2230 1614 1847 2261 1725 1714 1779 1592 1674 1716 1638 1590 1649 1566 1810 1688 2257 2271 1781 1627 1759 2247 1701 1704 1845 1784 1850 1733 1678 1657 1561 1834 1677 1808 1835 2242 2252 1711 1700 1612 1796 1740 2249 2241 1767 1735 1813 1762 1818 1832 1747 107 175 2266 280 1836 1726 250 1770 1957 272 1764 1783 1809 1755 2262 2199 245 1822 2250 1699 1804 1667 2246 1825 1734 1712 1693 2214 1754 2216 1763 2267 496 1750 2228 287 1790 1785 1853 1814 2191 1857 1833 1786 2208 1816 1774 242 2026 1776 1976 157 2229 1807 1979 1947 2070 2029 1826 2189 2215 2226 1777 2190 2147 2217 2156 2161 1802 2169 426 2174 278 168 2141 1800 1801 2160 1794 1815 1899 243 209 1927 1849 463 2205 2142 427 2177 1772 466 2227 1730 1917 334 2155 410 2082 2193 2055 1975 2139 531 2188 2180 2149 2179 1898 2206 2000 2185 2218 529 2097 500 1827 2172 2187 2202 2223 2098 982 2198 2132 2112 875 2148 2224 2152 2196 2124 2068 2130 2083 2035 2020 2096 2111 2037 1978 2072 1852 2186 1926 1089 2004 2081 2047 2016 1988 1961 1945 2032 2015 370 2134 2021 1960 2099 2109 2128 1856 2181 2010 2006 2069 1919 2014 2085 2114 2126 2028 1973 2129 563 1982 2113 2131 335 1865 1916 1996 1880 2048 371 446 521 1869 445 501 408 2044 1879 528 523 503 260 944 1886 1874 908 949 1986 2163 2178 2086 2117 1100 1923 1948 1884 1161 2052 1131 1936 765 2042 2045 693 2079 2078 2034 2077 2017 1983 1912 800 2033 562 1989 611 635 571 520 519 564 405 406 676 621 1858 731 841 1967 597 1878 872 766 1895 910 694 801 913 951 945 843 1331 1063 1102 1361 1139 915 702 772 1269 1311 703 1320 1108 1147 1256 1347 711 891 2144 1137 2143 2095 2168 2151 2107 980 2105 2041 2118 2127 1968 2195 2064 1999 1124 2043 2030 2167 2176 1987 1167 2062 2018 1099 2051 575 1172 441 558 656 442 1949 1134 2076 2110 1173 2093 2071 2122 557 2049 560 368 1959 1896 2022 1909 2031 1862 2066 2040 443 533 498 497 1876 369 536 561 1931 2009 2108 2067 1974 548 1981 2065 2102 1907 2140 584 1860 464 481 537 1955 1897 1946 407 1970 2013 1911 555 482 598 605 643 1893 566 596 568 1908 522 2080 530 1980 559 516 484 2011 2008 607 1925 602 637 1863 636 767 535 1941 639 600 513 476 1997 574 404 645 1889 556 517 534 2063 1952 1887 2039 2001 2003 1969 333 2019 565 1984 2115 570 2087 2094 524 2012 2036 1920 444 515 1894 572 502 499 638 642 634 601 525 2061 2092 490 532 1956 526 609 1016 692 987 1913 1972 1938 842 1934 989 1892 549 479 1866 599 539 480 1859 1891 728 585 538 840 950 804 1017 1219 1353 1197 1178 1200 878 914 729 1022 1105 1140 1024 953 1062 512 604 573 610 640 477 671 1864 675 1175 659 569 518 553 603 658 595 1881 1877 837 768 608 1882 620 550 836 802 730 981 440 606 514 478 764 587 622 660 551 1182 909 1104 1003 1177 733 1265 735 926 1033 554 626 589 805 1106 873 769 657 623 1340 803 670 624 586 552 588 593 732 838 770 808 633 627 661 695 696 668 707 632 697 662 1189 844 1299 625 1540 591 969 968 664 1141 567 630 677 592 594 672 669 663 629 708 631 704 1243 1142 667 990 666 806 706 590 1103 1373 1068 1000 700 734 1288 698 1194 879 699 705 737 774 773 1199 1144 845 628 736 1210 709 742 710 1277 1030 683 807 1035 1259 741 1037 1341 771 1179 745 743 1032 1221 1143 1349 1231 673 744 1190 739 1067 701 716 894 847 1254 646 779 813 809 1289 994 1107 1318 917 1040 1223 738 1278 746 1329 1386 862 811 787 880 678 1291 815 952 1185 1226 777 1234 812 1287 1066 776 1496 1070 1069 1272 919 1252 883 1242 814 848 810 1508 1276 1255 932 1375 1232 882 748 1217 1216 1326 931 752 1065 846 1376 1290 881 1028 782 816 918 753 1079 916 849 780 820 1257 786 887 682 967 1338 1031 863 1298 1250 858 854 1205 1233 1114 997 1244 861 889 1211 819 818 1301 1258 785 991 1317 852 1201 933 1738 817 1039 1001 783 1245 851 712 641 778 715 714 747 713 1309 665 644 1101 1475 647 674 740 775 750 
    </DataArray>
    <DataArray Name="Density" type="Float32" Format="ascii">