<?xml version="1.0"?>
<VTKFile type="PolyData" version="0.1" byte_order="LittleEndian">
 <PolyData>
  <Piece Name ="WaterBlock" NumberOfPoints="2095" NumberOfVerts="2095">
   <Points>
    <DataArray Name="Position" type="Float32"  NumberOfComponents="3" Format="ascii">
    0.01 0.00322447 0 0.03 0.00322447 0 0.05 0.00322447 0 0.09 0.00322447 0 0.07 0.00322447 0 0.11 0.00322447 0 0.13 0.00322447 0 0.15 0.00322447 0 0.17 0.00322447 0 0.19 0.00322447 0 0.01 0.0232245 0 0.01 0.0432245 0 0.01 0.0832245 0 0.01 0.0632245 0 0.01 0.103224 0 0.01 0.123224 0 0.01 0.143224 0 0.00876723 0.162724 0 0.05 0.0432245 0 0.03 0.0432245 0 0.03 0.0232245 0 0.05 0.0232245 0 0.07 0.0232245 0 0.07 0.0432245 0 0.09 0.0232245 0 0.09 0.0432245 0 0.05 0.0632245 0 0.03 0.103224 0 0.03 0.0632245 0 0.05 0.103224 0 0.05 0.0832245 0 0.03 0.0832245 0 0.07 0.0632245 0 0.07 0.0832245 0 0.09 0.103224 0 0.09 0.0832245 0 0.09 0.0632245 0 0.07 0.103224 0 0.11 0.0232245 0 0.13 0.0232245 0 0.11 0.0432245 0 0.13 0.0432245 0 0.15 0.0232245 0 0.17 0.0232245 0 0.19 0.0432245 0 0.19 0.0232245 0 0.15 0.0432245 0 0.17 0.0432245 0 0.13 0.0832245 0 0.11 0.0832245 0 0.13 0.103224 0 0.11 0.0632245 0 0.11 0.103224 0 0.13 0.0632245 0 0.15 0.103224 0 0.17 0.103224 0 0.19 0.0832245 0 0.15 0.0632245 0 0.19 0.103224 0 0.19 0.0632245 0 0.15 0.0832245 0 0.17 0.0632245 0 0.17 0.0832245 0 0.03 0.143224 0 0.03 0.123224 0 0.05 0.143224 0 0.05 0.123224 0 0.07 0.143224 0 0.09 0.143224 0 0.07 0.123224 0 0.09 0.123224 0 0.0120474 0.182774 0 0.0470597 0.190713 0 0.0508162 0.161578 0 0.0298492 0.162507 0 0.0332401 0.180319 0 0.0624439 0.174557 0 0.0781657 0.185914 0 0.0940564 0.166727 0 0.0776295 0.161282 0 0.0944466 0.195968 0 0.11 0.123224 0 0.13 0.143224 0 0.11 0.143224 0 0.13 0.123224 0 0.19 0.123224 0 0.15 0.123224 0 0.17 0.143224 0 0.15 0.143224 0 0.17 0.123224 0 0.19 0.143224 0 0.106313 0.18145 0 0.113962 0.161125 0 0.133989 0.163205 0 0.128283 0.182072 0 0.150515 0.18034 0 0.155511 0.161744 0 0.189903 0.182729 0 0.172288 0.185139 0 0.17458 0.165012 0 0.193973 0.160887 0 0.21 0.00322447 0 0.23 0.00322447 0 0.25 0.00322447 0 0.27 0.00322447 0 0.31 0.00322447 0 0.29 0.00322447 0 0.33 0.00322447 0 0.37 0.00322447 0 0.35 0.00322447 0 0.41 0.00322447 0 0.39 0.00322447 0 0.43 0.00322447 0 0.45 0.00322447 0 0.47 0.00322447 0 0.51 0.00322447 0 0.49 0.00322447 0 0.53 0.00322447 0 0.55 0.00322447 0 0.21 0.0432245 0 0.21 0.0232245 0 0.23 0.0432245 0 0.23 0.0232245 0 0.25 0.0232245 0 0.27 0.0432245 0 0.25 0.0432245 0 0.27 0.0232245 0 0.21 0.0632245 0 0.23 0.0632245 0 0.23 0.103224 0 0.21 0.0832245 0 0.21 0.103224 0 0.23 0.0832245 0 0.27 0.0632245 0 0.25 0.0632245 0 0.27 0.0832245 0 0.25 0.103224 0 0.27 0.103224 0 0.25 0.0832245 0 0.29 0.0232245 0 0.29 0.0432245 0 0.31 0.0432245 0 0.33 0.0432245 0 0.33 0.0232245 0 0.31 0.0232245 0 0.37 0.0232245 0 0.37 0.0432245 0 0.35 0.0432245 0 0.35 0.0232245 0 0.29 0.0832245 0 0.33 0.103224 0 0.31 0.0832245 0 0.33 0.0632245 0 0.33 0.0832245 0 0.31 0.0632245 0 0.31 0.103224 0 0.29 0.0632245 0 0.29 0.103224 0 0.35 0.0632245 0 0.37 0.0632245 0 0.37 0.103224 0 0.35 0.103224 0 0.37 0.0832245 0 0.35 0.0832245 0 0.23 0.123224 0 0.21 0.143224 0 0.23 0.143224 0 0.21 0.123224 0 0.25 0.123224 0 0.27 0.143224 0 0.27 0.123224 0 0.25 0.143224 0 0.23388 0.165503 0 0.210634 0.180337 0 0.225636 0.190173 0 0.216241 0.16273 0 0.245188 0.185391 0 0.271598 0.162407 0 0.262975 0.183338 0 0.251673 0.162358 0 0.281952 0.181512 0 0.29 0.143224 0 0.31 0.123224 0 0.33 0.123224 0 0.29 0.123224 0 0.31 0.143224 0 0.33 0.143224 0 0.35 0.143224 0 0.35 0.123224 0 0.37 0.123224 0 0.37 0.143224 0 0.293764 0.161619 0 0.323441 0.183715 0 0.314357 0.163485 0 0.333316 0.163228 0 0.300783 0.180609 0 0.350505 0.164171 0 0.369576 0.16282 0 0.344691 0.186848 0 0.361992 0.185482 0 0.41 0.0232245 0 0.39 0.0232245 0 0.41 0.0432245 0 0.39 0.0432245 0 0.43 0.0232245 0 0.45 0.0432245 0 0.45 0.0232245 0 0.47 0.0432245 0 0.47 0.0232245 0 0.43 0.0432245 0 0.41 0.103224 0 0.41 0.0632245 0 0.39 0.103224 0 0.39 0.0632245 0 0.39 0.0832245 0 0.41 0.0832245 0 0.47 0.0632245 0 0.43 0.0832245 0 0.43 0.0632245 0 0.45 0.103224 0 0.47 0.103224 0 0.43 0.103224 0 0.45 0.0832245 0 0.47 0.0832245 0 0.45 0.0632245 0 0.49 0.0432245 0 0.51 0.0232245 0 0.51 0.0432245 0 0.49 0.0232245 0 0.53 0.0432245 0 0.55 0.0432245 0 0.55 0.0232245 0 0.53 0.0232245 0 0.51 0.0832245 0 0.51 0.0632245 0 0.49 0.0632245 0 0.49 0.103224 0 0.49 0.0832245 0 0.51 0.103224 0 0.55 0.103224 0 0.55 0.0632245 0 0.53 0.0632245 0 0.53 0.0832245 0 0.53 0.103224 0 0.55 0.0832245 0 0.39 0.123224 0 0.41 0.123224 0 0.39 0.143224 0 0.41 0.143224 0 0.45 0.123224 0 0.45 0.143224 0 0.43 0.143224 0 0.47 0.123224 0 0.43 0.123224 0 0.47 0.143224 0 0.380615 0.181694 0 0.38997 0.161692 0 0.401027 0.181798 0 0.420165 0.185119 0 0.411032 0.163108 0 0.450127 0.161554 0 0.459782 0.178687 0 0.429719 0.163451 0 0.43927 0.18265 0 0.51 0.123224 0 0.49 0.123224 0 0.49 0.143224 0 0.51 0.143224 0 0.53 0.123224 0 0.53 0.143224 0 0.55 0.123224 0 0.55 0.143224 0 0.480107 0.183232 0 0.493054 0.163149 0 0.473487 0.16212 0 0.511938 0.16341 0 0.498844 0.184914 0 0.556171 0.187595 0 0.538244 0.181777 0 0.518541 0.185154 0 0.55162 0.161287 0 0.530441 0.163429 0 0.00806851 0.224287 0 0.0114203 0.285664 0 0.0112645 0.244382 0 0.00787207 0.262515 0 0.00900581 0.301729 0 0.00760038 0.325232 0 0.00830231 0.349882 0 0.0576654 0.239161 0 0.0202893 0.212405 0 0.0312193 0.236509 0 0.0151818 0.198011 0 0.042238 0.206441 0 0.042817 0.224527 0 0.10293 0.215244 0 0.0827667 0.212735 0 0.0656362 0.200181 0 0.0643474 0.220829 0 0.082553 0.233437 0 0.0493092 0.258694 0 0.04811 0.276753 0 0.0258052 0.274803 0 0.0320632 0.254536 0 0.094434 0.246294 0 0.0720999 0.251675 0 0.0713895 0.270053 0 0.0902935 0.268667 0 0.123697 0.241844 0 0.144789 0.196777 0 0.126408 0.213918 0 0.108563 0.231365 0 0.137092 0.228344 0 0.119111 0.198715 0 0.152476 0.214659 0 0.162599 0.23365 0 0.178689 0.225212 0 0.166171 0.204161 0 0.186788 0.204969 0 0.130412 0.259004 0 0.14998 0.2456 0 0.133485 0.275916 0 0.108896 0.260056 0 0.111728 0.278925 0 0.156678 0.286412 0 0.188919 0.265609 0 0.173508 0.278432 0 0.169668 0.25603 0 0.187222 0.244939 0 0.153311 0.265458 0 0.0247627 0.319275 0 0.0384523 0.291517 0 0.0358327 0.30656 0 0.0535555 0.317263 0 0.064488 0.332994 0 0.0687029 0.288381 0 0.0926238 0.288568 0 0.0642277 0.302448 0 0.102711 0.322191 0 0.0793841 0.319004 0 0.0906294 0.303447 0 0.0537711 0.373542 0 0.0445977 0.336483 0 0.039297 0.355827 0 0.0250912 0.339479 0 0.0186241 0.364821 0 0.0358886 0.377497 0 0.0596457 0.354223 0 0.0964461 0.367246 0 0.0766693 0.375471 0 0.0857712 0.338275 0 0.102735 0.343588 0 0.0784146 0.356359 0 0.147592 0.31227 0 0.120134 0.295513 0 0.114752 0.311611 0 0.139829 0.295876 0 0.132539 0.322482 0 0.160218 0.333912 0 0.184918 0.331281 0 0.165981 0.317062 0 0.172012 0.29925 0 0.193518 0.291404 0 0.189422 0.31098 0 0.135031 0.359868 0 0.12226 0.339091 0 0.132566 0.377447 0 0.141419 0.341193 0 0.114477 0.360497 0 0.185317 0.369061 0 0.161182 0.354214 0 0.155299 0.369427 0 0.179191 0.348228 0 0.00871075 0.400462 0 0.00962606 0.379175 0 0.00936635 0.448087 0 0.00863028 0.425573 0 0.0078625 0.495909 0 0.00858415 0.471288 0 0.0102939 0.562645 0 0.00806148 0.525826 0 0.0259399 0.394973 0 0.0241703 0.417328 0 0.0427474 0.41538 0 0.0476716 0.396792 0 0.0668225 0.413555 0 0.0848581 0.412716 0 0.065358 0.392616 0 0.0869332 0.39171 0 0.0420944 0.448259 0 0.0440242 0.467077 0 0.0268259 0.438929 0 0.0228594 0.463676 0 0.0521409 0.429851 0 0.0760368 0.431943 0 0.100798 0.469332 0 0.0628717 0.447631 0 0.0894965 0.452967 0 0.0735029 0.461837 0 0.0964254 0.436869 0 0.149146 0.42531 0 0.122055 0.411951 0 0.128609 0.393809 0 0.104337 0.399939 0 0.144817 0.407917 0 0.108812 0.381353 0 0.104649 0.421605 0 0.166306 0.404105 0 0.183572 0.411174 0 0.153373 0.389571 0 0.17265 0.382408 0 0.190801 0.391513 0 0.115892 0.446379 0 0.117968 0.463651 0 0.13838 0.465692 0 0.127782 0.430049 0 0.138516 0.445037 0 0.155726 0.464566 0 0.168084 0.427303 0 0.179902 0.445232 0 0.191379 0.429487 0 0.187772 0.462504 0 0.160311 0.446125 0 0.0207153 0.514638 0 0.0425991 0.508159 0 0.0560755 0.500026 0 0.0384426 0.483965 0 0.02349 0.492259 0 0.0881383 0.483153 0 0.0731666 0.491079 0 0.0612532 0.475826 0 0.0895032 0.509337 0 0.0718441 0.515443 0 0.0311875 0.544872 0 0.036008 0.526532 0 0.0122512 0.544999 0 0.0478154 0.549242 0 0.0579006 0.527816 0 0.0802802 0.563538 0 0.101362 0.562985 0 0.0890805 0.546129 0 0.092524 0.527457 0 0.0615729 0.561119 0 0.0703411 0.539012 0 0.110199 0.510948 0 0.130974 0.504486 0 0.140895 0.487389 0 0.104895 0.492712 0 0.122848 0.484804 0 0.19559 0.483257 0 0.173809 0.473095 0 0.183236 0.513228 0 0.182203 0.496808 0 0.157169 0.50412 0 0.161918 0.487406 0 0.140439 0.537603 0 0.110481 0.538462 0 0.123569 0.52471 0 0.121056 0.551784 0 0.145777 0.519767 0 0.166916 0.542424 0 0.150762 0.552368 0 0.186121 0.534135 0 0.165881 0.52361 0 0.183513 0.555049 0 0.233039 0.226992 0 0.204421 0.201451 0 0.214535 0.232034 0 0.24131 0.205618 0 0.219445 0.211204 0 0.196637 0.225648 0 0.274012 0.221981 0 0.280968 0.201684 0 0.252695 0.225182 0 0.260018 0.205321 0 0.277668 0.239209 0 0.206957 0.250038 0 0.222514 0.263006 0 0.205239 0.272741 0 0.228143 0.281394 0 0.233262 0.246897 0 0.25541 0.244052 0 0.269623 0.257389 0 0.246262 0.262384 0 0.250035 0.278894 0 0.266587 0.286026 0 0.279619 0.27217 0 0.296356 0.206931 0 0.311747 0.224671 0 0.312605 0.198764 0 0.327971 0.219454 0 0.295344 0.229497 0 0.351243 0.216711 0 0.334591 0.202196 0 0.365116 0.204728 0 0.339166 0.235921 0 0.374583 0.221162 0 0.359091 0.236076 0 0.325753 0.248471 0 0.29329 0.256478 0 0.300853 0.277898 0 0.317272 0.268544 0 0.307995 0.24805 0 0.374693 0.279981 0 0.378458 0.24365 0 0.347704 0.255837 0 0.354921 0.280474 0 0.33632 0.271797 0 0.364999 0.259182 0 0.209253 0.296065 0 0.216777 0.313329 0 0.241457 0.315586 0 0.202616 0.327026 0 0.227436 0.329692 0 0.233042 0.29719 0 0.281977 0.329354 0 0.265576 0.322792 0 0.254515 0.302566 0 0.276035 0.305202 0 0.211906 0.3
[...]
   <PointData  Vectors="vector">
    <DataArray Name="SortedParticle_ID" type="Int32" Format="ascii">
    0 1 2 3 4 5 6 7 8 9 10 11 12 13 14 15 16 17 18 19 20 21 22 23 24 25 26 27 28 29 30 31 32 33 34 35 36 37 38 39 40 41 42 43 44 45 46 47 48 49 50 51 52 53 54 55 56 57 58 59 60 61 62 63 64 65 66 67 68 69 70 71 72 73 74 75 76 77 78 79 80 81 82 83 84 85 86 87 88 89 90 91 92 93 94 95 96 97 98 99 100 101 102 103 104 105 106 107 108 109 110 111 112 113 114 115 116 117 118 119 120 121 122 123 124 125 126 127 128 129 130 131 132 133 134 135 136 137 138 139 140 141 142 143 144 145 146 147 148 149 150 151 152 153 154 155 156 157 158 159 160 161 162 163 164 165 166 167 168 169 170 171 172 173 174 175 176 177 178 179 180 181 182 183 184 185 186 187 188 189 190 191 192 193 194 195 196 197 198 199 200 201 202 203 204 205 206 207 208 209 210 211 212 213 214 215 216 217 218 219 220 221 222 223 224 225 226 227 228 229 230 231 232 233 234 235 236 237 238 239 240 241 242 243 244 245 246 247 248 249 250 251 252 253 254 255 256 257 258 259 260 261 262 263 264 265 266 267 268 269 270 271 272 273 274 275 276 277 278 279 280 281 282 283 284 285 286 287 288 289 290 291 292 293 294 295 296 297 298 299 300 301 302 303 304 305 306 307 308 309 310 311 312 313 314 315 316 317 318 319 320 321 322 323 324 325 326 327 328 329 330 331 332 333 334 335 336 337 338 339 340 341 342 343 344 345 346 347 348 349 350 351 352 353 354 355 356 357 358 359 360 361 362 363 364 365 366 367 368 369 370 371 372 373 374 375 376 377 378 379 380 381 382 383 384 385 386 387 388 389 390 391 392 393 394 395 396 397 398 399 400 401 402 403 404 405 406 407 408 409 410 411 412 413 414 415 416 417 418 419 420 421 422 423 424 425 426 427 428 429 430 431 432 433 434 435 436 437 438 439 440 441 442 443 444 445 446 447 448 449 450 451 452 453 454 455 456 457 458 459 460 461 462 463 464 465 466 467 468 469 470 471 472 473 474 475 476 477 478 479 480 481 482 483 484 485 486 487 488 489 490 491 492 493 494 495 496 497 498 499 500 501 502 503 504 505 506 507 508 509 510 511 512 513 514 515 516 517 518 519 520 521 522 523 524 525 526 527 528 529 530 531 532 533 534 535 536 537 538 539 540 541 542 543 544 545 546 547 548 549 550 551 552 553 554 555 556 557 558 559 560 561 562 563 564 565 566 567 568 569 570 571 572 573 574 575 576 577 578 579 580 581 582 583 584 585 586 587 588 589 590 591 592 593 594 595 596 597 598 599 600 601 602 603 604 605 606 607 608 609 610 611 612 613 614 615 616 617 618 619 620 621 622 623 624 625 626 627 628 629 630 631 632 633 634 635 636 637 638 639 640 641 642 643 644 645 646 647 648 649 650 651 652 653 654 655 656 657 658 659 660 661 662 663 664 665 666 667 668 669 670 671 672 673 674 675 676 677 678 679 680 681 682 683 684 685 686 687 688 689 690 691 692 693 694 695 696 697 698 699 700 701 702 703 704 705 706 707 708 709 710 711 712 713 714 715 716 717 718 719 720 721 722 723 724 725 726 727 728 729 730 731 732 733 734 735 736 737 738 739 740 741 742 743 744 745 746 747 748 749 750 751 752 753 754 755 756 757 758 759 760 761 762 763 764 765 766 767 768 769 770 771 772 773 774 775 776 777 778 779 780 781 782 783 784 785 786 787 788 789 790 791 792 793 794 795 796 797 798 799 800 801 802 803 804 805 806 807 808 809 810 811 812 813 814 815 816 817 818 819 820 821 822 823 824 825 826 827 828 829 830 831 832 833 834 835 836 837 838 839 840 841 842 843 844 845 846 847 848 849 850 851 852 853 854 855 856 857 858 859 860 861 862 863 864 865 866 867 868 869 870 871 872 873 874 875 876 877 878 879 880 881 882 883 884 885 886 887 888 889 890 891 892 893 894 895 896 897 898 899 900 901 902 903 904 905 906 907 908 909 910 911 912 913 914 915 916 917 918 919 920 921 922 923 924 925 926 927 928 929 930 931 932 933 934 935 936 937 938 939 940 941 942 943 944 945 946 947 948 949 950 951 952 953 954 955 956 957 958 959 960 961 962 963 964 965 966 967 968 969 970 971 972 973 974 975 976 977 978 979 980 981 982 983 984 985 986 987 988 989 990 991 992 993 994 995 996 997 998 999 1000 1001 1002 1003 1004 1005 1006 1007 1008 1009 1010 1011 1012 1013 1014 1015 1016 1017 1018 1019 1020 1021 1022 1023 1024 1025 1026 1027 1028 1029 1030 1031 1032 1033 1034 1035 1036 1037 1038 1039 1040 1041 1042 1043 1044 1045 1046 1047 1048 1049 1050 1051 1052 1053 1054 1055 1056 1057 1058 1059 1060 1061 1062 1063 1064 1065 1066 1067 1068 1069 1070 1071 1072 1073 1074 1075 1076 1077 1078 1079 1080 1081 1082 1083 1084 1085 1086 1087 1088 1089 1090 1091 1092 1093 1094 1095 1096 1097 1098 1099 1100 1101 1102 1103 1104 1105 1106 1107 1108 1109 1110 1111 1112 1113 1114 1115 1116 1117 1118 1119 1120 1121 1122 1123 1124 1125 1126 1127 1128 1129 1130 1131 1132 1133 1134 1135 1136 1137 1138 1139 1140 1141 1142 1143 1144 1145 1146 1147 1148 1149 1150 1151 1152 1153 1154 1155 1156 1157 1158 1159 1160 1161 1162 1163 1164 1165 1166 1167 1168 1169 1170 1171 1172 1173 1174 1175 1176 1177 1178 1179 1180 1181 1182 1183 1184 1185 1186 1187 1188 1189 1190 1191 1192 1193 1194 1195 1196 1197 1198 1199 1200 1201 1202 1203 1204 1205 1206 1207 1208 1209 1210 1211 1212 1213 1214 1215 1216 1217 1218 1219 1220 1221 1222 1223 1224 1225 1226 1227 1228 1229 1230 1231 1232 1233 1234 1235 1236 1237 1238 1239 1240 1241 1242 1243 1244 1245 1246 1247 1248 1249 1250 1251 1252 1253 1254 1255 1256 1257 1258 1259 1260 1261 1262 1263 1264 1265 1266 1267 1268 1269 1270 1271 1272 1273 1274 1275 1276 1277 1278 1279 1280 1281 1282 1283 1284 1285 1286 1287 1288 1289 1290 1291 1292 1293 1294 1295 1296 1297 1298 1299 1300 1301 1302 1303 1304 1305 1306 1307 1308 1309 1310 1311 1312 1313 1314 1315 1316 1317 1318 1319 1320 1321 1322 1323 1324 1325 1326 1327 1328 1329 1330 1331 1332 1333 1334 1335 1336 1337 1338 1339 1340 1341 1342 1343 1344 1345 1346 1347 1348 1349 1350 1351 1352 1353 1354 1355 1356 1357 1358 1359 1360 1361 1362 1363 1364 1365 1366 1367 1368 1369 1370 1371 1372 1373 1374 1375 1376 1377 1378 1379 1380 1381 1382 1383 1384 1385 1386 1387 1388 1389 1390 1391 1392 1393 1394 1395 1396 1397 1398 1399 1400 1401 1402 1403 1404 1405 1406 1407 1408 1409 1410 1411 1412 1413 1414 1415 1416 1417 1418 1419 1420 1421 1422 1423 1424 1425 1426 1427 1428 1429 1430 1431 1432 1433 1434 1435 1436 1437 1438 1439 1440 1441 1442 1443 1444 1445 1446 1447 1448 1449 1450 1451 1452 1453 1454 1455 1456 1457 1458 1459 1460 1461 1462 1463 1464 1465 1466 1467 1468 1469 1470 1471 1472 1473 1474 1475 1476 1477 1478 1479 1480 1481 1482 1483 1484 1485 1486 1487 1488 1489 1490 1491 1492 1493 1494 1495 1496 1497 1498 1499 1500 1501 1502 1503 1504 1505 1506 1507 1508 1509 1510 1511 1512 1513 1514 1515 1516 1517 1518 1519 1520 1521 1522 1523 1524 1525 1526 1527 1528 1529 1530 1531 1532 1533 1534 1535 1536 1537 1538 1539 1540 1541 1542 1543 1544 1545 1546 1547 1548 1549 1550 1551 1552 1553 1554 1555 1556 1557 1558 1559 1560 1561 1562 1563 1564 1565 1566 1567 1568 1569 1570 1571 1572 1573 1574 1575 1576 1577 1578 1579 1580 1581 1582 1583 1584 1585 1586 1587 1588 1589 1590 1591 1592 1593 1594 1595 1596 1597 1598 1599 1600 1601 1602 1603 1604 1605 1606 1607 1608 1609 1610 1611 1612 1613 1614 1615 1616 1617 1618 1619 1620 1621 1622 1623 1624 1625 1626 1627 1628 1629 1630 1631 1632 1633 1634 1635 1636 1637 1638 1639 1640 1641 1642 1643 1644 1645 1646 1647 1648 1649 1650 1651 1652 1653 1654 1655 1656 1657 1658 1659 1660 1661 1662 1663 1664 1665 1666 1667 1668 1669 1670 1671 1672 1673 1674 1675 1676 1677 1678 1679 1680 1681 1682 1683 1684 1685 1686 1687 1688 1689 1690 1691 1692 1693 1694 1695 1696 1697 1698 1699 1700 1701 1702 1703 1704 1705 1706 1707 1708 1709 1710 1711 1712 1713 1714 1715 1716 1717 1718 1719 1720 1721 1722 1723 1724 1725 1726 1727 1728 1729 1730 1731 1732 1733 1734 1735 1736 1737 1738 1739 1740 1741 1742 1743 1744 1745 1746 1747 1748 1749 1750 1751 1752 1753 1754 1755 1756 1757 1758 1759 1760 1761 1762 1763 1764 1765 1766 1767 1768 1769 1770 1771 1772 1773 1774 1775 1776 1777 1778 1779 1780 1781 1782 1783 1784 1785 1786 1787 1788 1789 1790 1791 1792 1793 1794 1795 1796 1797 1798 1799 1800 1801 1802 1803 1804 1805 1806 1807 1808 1809 1810 1811 1812 1813 1814 1815 1816 1817 1818 1819 1820 1821 1822 1823 1824 1825 1826 1827 1828 1829 1830 1831 1832 1833 1834 1835 1836 1837 1838 1839 1840 1841 1842 1843 1844 1845 1846 1847 1848 1849 1850 1851 1852 1853 1854 1855 1856 1857 1858 1859 1860 1861 1862 1863 1864 1865 1866 1867 1868 1869 1870 1871 1872 1873 1874 1875 1876 1877 1878 1879 1880 1881 1882 1883 1884 1885 1886 1887 1888 1889 1890 1891 1892 1893 1894 1895 1896 1897 1898 1899 1900 1901 1902 1903 1904 1905 1906 1907 1908 1909 1910 1911 1912 1913 1914 1915 1916 1917 1918 1919 1920 1921 1922 1923 1924 1925 1926 1927 1928 1929 1930 1931 1932 1933 1934 1935 1936 1937 1938 1939 1940 1941 1942 1943 1944 1945 1946 1947 1948 1949 1950 1951 1952 1953 1954 1955 1956 1957 1958 1959 1960 1961 1962 1963 1964 1965 1966 1967 1968 1969 1970 1971 1972 1973 1974 1975 1976 1977 1978 1979 1980 1981 1982 1983 1984 1985 1986 1987 1988 1989 1990 1991 1992 1993 1994 1995 1996 1997 1998 1999 2000 2001 2002 2003 2004 2005 2006 2007 2008 2009 2010 2011 2012 2013 2014 2015 2016 2017 2018 2019 2020 2021 2022 2023 2024 2025 2026 2027 2028 2029 2030 2031 2032 2033 2034 2035 2036 2037 2038 2039 2040 2041 2042 2043 2044 2045 2046 2047 2048 2049 2050 2051 2052 2053 2054 2055 2056 2057 2058 2059 2060 2061 2062 2063 2064 2065 2066 2067 2068 2069 2070 2071 2072 2073 2074 2075 2076 2077 2078 2079 2080 2081 2082 2083 2084 2085 2086 2087 2088 2089 2090 2091 2092 2093 2094 
    </DataArray>
    <DataArray Name="OriginalID" type="Int32" Format="ascii">
    2 38 74 146 110 182 218 254 290 326 3 4 6 5 7 0 1 1988 76 40 39 75 111 112 147 148 77 43 41 79 78 42 113 114 151 150 149 115 183 219 184 220 255 291 328 327 256 292 222 186 223 185 187 221 259 295 330 257 331 329 258 293 294 37 36 73 72 109 145 108 144 98 2171 676 564 1775 348 1909 2041 2015 2259 180 217 181 216 324 252 289 253 288 325 2118 2195 2033 767 1869 694 872 2010 2083 2043 362 398 434 470 542 506 578 650 614 722 686 758 794 830 902 866 938 974 364 363 400 399 435 472 436 471 365 401 403 366 367 402 473 437 474 439 475 438 507 508 544 580 579 543 651 652 616 615 510 583 546 581 582 545 547 509 511 617 653 655 619 654 618 396 361 397 360 432 469 468 433 1102 1912 2018 1124 2117 2014 1895 2077 2064 505 540 576 504 541 577 613 612 648 649 980 521 1100 2052 1934 2148 1961 2045 1916 723 687 724 688 759 796 795 832 831 760 727 725 691 689 690 726 833 762 761 799 835 763 798 834 797 868 903 904 867 940 976 975 939 906 905 869 871 870 907 979 977 941 942 943 978 684 720 685 721 792 793 757 828 756 829 1923 2144 637 443 2109 501 1884 2047 1161 900 864 865 901 936 937 972 973 1959 2048 2151 1880 446 841 555 1879 408 800 1001 889 190 489 1385 485 247 1430 1300 2090 1690 2100 1943 297 1246 1639 1901 345 173 488 191 2056 65 246 2248 1924 859 445 1753 893 1507 355 1675 467 923 2044 1330 1660 527 387 1995 465 68 850 2038 430 1240 1771 1338 1723 226 339 231 1820 66 63 1994 1806 1958 450 411 382 679 1180 284 249 25 349 347 2164 132 1812 172 208 306 309 1731 1591 176 494 279 454 2203 486 169 308 129 1870 99 61 2260 351 2050 2023 1805 71 1384 1664 712 2137 2125 386 493 166 2002 20 95 120 1933 212 1871 27 241 1954 2136 55 415 85 123 56 48 119 201 2135 51 12 1745 26 265 1977 138 240 121 47 2159 235 52 155 495 46 205 1928 1562 2158 142 1208 2133 1990 93 100 1732 236 1687 991 1069 323 2157 227 50 313 301 1890 196 1930 125 413 154 58 83 139 16 2104 88 81 1965 156 97 277 447 24 17 232 1861 2051 2034 1538 442 368 2073 765 1099 2062 571 766 2184 312 13 29 1296 2110 1404 1962 2046 1321 1297 2022 404 1955 2040 523 596 520 519 1172 1173 843 1896 503 528 425 656 574 2009 1911 2140 476 981 281 189 2269 491 276 1115 318 128 307 452 305 429 354 462 393 337 268 1739 1710 1039 2101 270 234 1862 1867 2270 300 1967 636 1981 584 1938 1893 635 448 45 188 2013 82 477 2008 539 560 1940 1997 371 369 2071 2167 513 2092 1989 2108 2042 522 497 441 1134 534 1892 2067 499 482 1887 1017 490 568 260 1949 1968 2176 566 1016 1167 1863 1983 1913 2031 561 549 2076 1882 537 1059 1019 876 675 557 595 842 464 1859 551 1952 1178 1956 620 728 1984 518 605 1024 600 1104 1925 802 2115 1200 640 601 1033 572 645 517 502 1894 1922 1130 1543 1897 804 1864 1383 947 1219 1127 1094 1168 1057 2213 158 136 2089 60 34 385 311 102 11 892 31 18 1998 162 177 53 1758 197 1910 269 10 322 1063 1787 359 498 536 598 22 801 530 338 1433 2166 92 19 178 346 2122 548 89 23 21 131 91 32 1669 96 62 137 64 122 87 49 1902 104 303 143 179 159 1971 193 105 1435 317 54 353 492 1517 86 314 90 357 206 160 126 199 67 826 1261 316 1105 2003 1265 1353 808 526 512 2087 1197 480 1891 565 1920 1889 333 989 770 1144 30 729 666 1540 1164 669 594 589 1915 1972 525 874 2061 1595 912 670 1299 610 2019 633 2001 514 837 1885 1340 1466 1969 418 1236 302 407 456 1175 2012 768 697 15 230 412 532 634 556 573 609 553 671 1003 593 623 479 878 1881 478 668 703 632 969 1866 1243 590 608 1068 730 622 699 838 624 657 734 1010 1046 1154 1118 1082 1048 1047 1011 1012 1156 1083 1155 1119 1120 1084 1049 1014 1051 1050 1015 1013 1121 1085 1087 1086 1159 1158 1123 1122 1157 1008 1009 1045 1044 1152 1116 1153 1117 1080 1081 1999 1908 2006 643 2105 599 2030 2102 2035 2107 1095 1860 2069 1931 481 2053 1165 1088 1170 2065 1768 1098 1090 2138 533 948 1125 1286 1065 1375 1136 1658 1135 1370 1061 1736 2245 1756 1951 1525 877 946 672 587 1053 1093 1744 839 911 1176 705 1605 984 1126 1629 1128 1092 1344 735 1055 741 1056 968 1103 1950 1838 2275 815 844 708 592 1254 2253 736 1142 591 695 773 1256 1199 873 585 891 567 554 710 1277 663 1349 629 662 586 1037 707 667 606 862 1289 1341 1287 2153 1475 1264 1242 1535 1221 644 674 628 811 1054 1233 1279 846 1939 1326 2264 1686 1020 1132 852 785 858 1245 986 983 1205 784 817 1322 1573 1186 1174 1646 2272 1270 1096 1431 1798 1026 1424 1029 1201 1485 1728 1021 1550 1741 1600 1432 1888 1247 1319 1163 896 1621 1581 1514 1476 1665 1624 1534 1547 1345 1464 1653 1443 1275 1479 1511 1457 1523 1343 1162 1541 2276 1407 1631 1491 1717 1413 1448 1422 1760 1436 1369 1389 1579 1782 1129 1449 1709 1673 985 1337 1570 1604 1526 1666 1500 1811 1533 1339 84 851 1829 2265 1721 286 1310 202 164 377 165 106 336 170 1844 1241 1257 967 1766 167 380 161 28 1964 33 204 248 198 210 271 2074 2057 285 283 174 2058 1904 2119 2170 2150 2091 1793 451 394 1377 742 140 1705 1722 806 778 1318 1868 263 374 1757 682 698 341 395 315 2145 1311 213 152 1288 379 135 251 1307 1188 789 118 233 282 275 94 1918 321 194 274 352 59 237 1854 1821 35 200 239 228 266 389 273 195 70 57 1905 244 44 124 130 2027 133 299 392 1944 116 340 424 1929 1837 1953 417 1935 2005 153 1746 238 214 457 1387 458 211 261 1194 1992 931 459 332 2106 2116 1608 414 1873 117 14 2060 1966 320 342 381 358 1108 428 207 203 134 926 2036 1427 570 764 1182 171 1062 229 733 262 264 2007 419 1177 1483 914 538 658 1140 661 141 373 1022 2059 356 625 1780 9 1963 1406 803 298 1320 1189 372 659 421 2054 1368 375 224 423 836 630 1141 552 1985 1259 2103 1147 1937 787 1076 80 422 487 416 747 665 700 1877 1272 745 1262 1921 743 683 626 1179 909 738 101 706 1030 1190 952 714 810 1231 769 627 1000 631 813 1255 1032 713 1101 709 1250 779 740 1091 1217 881 780 916 1028 1079 1066 777 1298 932 809 849 781 1266 1216 752 1329 771 677 1223 647 1278 1070 861 701 702 1508 879 267 641 1386 1211 863 1067 774 883 1635 1187 1185 1232 807 1114 455 483 69 783 919 819 1396 1441 820 965 933 748 1496 997 746 1107 744 1031 461 1267 715 814 818 1301 753 918 1248 431 1738 1280 1064 857 1207 993 717 854 996 1225 1213 1260 1005 680 962 1036 935 848 1252 887 776 1075 1309 882 1244 1151 646 215 1072 1202 1312 790 786 1215 1555 296 1276 1942 1212 1408 1004 1258 1027 2024 1284 1073 1729 8 1274 955 1218 1193 1058 791 895 1324 1676 1198 1042 1206 788 1181 885 1283 1077 755 1374 1071 897 1171 1148 921 1497 1043 1378 958 1394 1214 925 929 1352 1160 1251 1486 1419 1192 1365 1303 718 884 930 1932 749 1510 1146 1209 1112 920 970 1993 898 1619 1222 971 1606 954 719 1184 1292 827 886 1191 1505 1991 1235 1906 1323 1149 1150 1366 1007 1400 1531 1249 1415 1447 856 1423 888 1196 999 1038 1498 1227 1294 1111 934 1228 960 1518 1363 1399 1549 1552 1239 1367 388 1471 1560 1706 1204 1530 1405 1295 1334 1388 1333 1362 1488 1651 1355 1509 2255 998 1350 390 860 963 992 964 961 453 1195 1450 1420 1074 927 1034 1224 1395 1454 924 928 1041 1452 1539 1453 966 1645 1769 1594 1691 1097 1133 1803 1680 1679 1572 1578 1668 2273 1743 1052 1637 1720 2258 2268 1848 1719 1644 1695 1590 1779 1681 1789 1484 1702 1824 1566 1592 1611 1694 1438 1565 384 1580 350 1528 1640 1599 1481 1671 1713 1715 1131 2256 2222 1791 1615 1602 1716 304 1840 1733 1914 1688 2070 1846 1936 2251 2238 1975 2239 2123 1700 1693 1699 496 2214 1060 1845 2154 1762 2126 2149 2206 1598 1576 1421 1501 1708 1652 1357 1544 1613 1568 1672 1567 1474 1529 1402 1348 1569 1393 1617 1707 1503 1446 376 1703 1390 460 1795 1778 1360 1692 1416 1492 1358 1304 1563 1655 1478 1504 2277 1545 1642 1524 1314 1078 1281 1718 1522 956 1354 1429 1410 1482 1470 1462 1403 1109 1458 1625 1575 163 1610 1425 1346 1455 1253 1392 1548 1414 1643 1819 409 1418 1409 1473 2025 1626 449 1426 1472 1381 1391 1628 1512 1650 1494 1325 1683 103 225 1437 1574 1461 1490 1513 1647 1557 1831 1506 1439 192 1335 1725 1638 1596 1633 1593 1477 1749 1282 1542 1546 1632 272 1588 1616 1623 1556 1364 1463 1670 1830 1356 1661 378 1382 1499 391 1851 1444 1900 1607 319 343 420 1527 1843 1609 1809 1589 1648 1411 1737 1417 1412 1551 2257 1493 1850 1842 1627 1677 1800 2235 1761 2197 1428 1788 2075 1714 1649 2234 1603 2254 1818 1858 2193 1804 910 2236 1883 463 2231 2232 2244 242 1790 2233 2237 2185 1828 1750 2097 310 1684 1587 1459 1682 127 1582 1583 1601 1823 1553 1847 1641 1755 175 1872 1786 1797 1698 1654 1636 2274 1839 1748 2221 2209 344 245 1764 563 1874 2182 1785 1835 500 2177 2082 1023 2243 1917 1853 529 2250 2262 1742 1656 1585 1614 1957 1586 2055 1689 1773 2240 1659 383 1759 1834 1577 2263 1724 1727 2230 1735 243 949 1752 2201 1657 2218 2210 2192 1810 2139 988 1770 2180 2207 2227 1979 2155 2142 280 1814 1697 2261 1630 1825 1532 1765 1612 1169 1801 335 2242 1597 1774 2252 107 1841 168 2196 1740 2216 2228 2271 2191 287 157 1813 2129 1751 1783 1833 1704 2212 1726 2241 1808 2246 1973 2247 1763 1767 2088 1468 1776 1754 1667 1730 1138 250 1796 1701 1822 2028 1976 1747 1832 2160 209 2121 1712 1561 1781 2229 1734 531 1927 1857 2175 944 1018 2165 2220 1799 2208 2147 1948 466 405 2181 2000 1826 410 2211 1089 915 2163 1794 2156 2223 1166 731 1816 2226 1777 2215 2146 2183 2179 1926 951 1792 2204 913 2032 427 1982 2096 1960 2162 1361 1875 982 1807 2161 2132 1878 1852 2198 2029 1855 1856 597 2187 2169 2219 2173 2189 2004 2134 2202 2127 2194 2217 2084 2085 2168 2098 2124 1945 2020 875 2224 1025 1802 2111 2017 1139 1827 1903 2113 1815 2143 693 908 2021 2016 1986 2072 987 2141 2178 2172 406 1987 2079 2152 2037 2081 2099 1978 1996 1919 2205 1899 1674 1536 1886 1849 1898 2267 2249 1711 2131 2026 2200 2199 2266 1678 1784 2188 1836 278 2225 334 2114 2128 2174 2190 1772 2120 1947 2186 426 
    </DataArray>
    <DataArray Name="Density" type="Float32" Format="ascii">