<?xml version="1.0"?>
<VTKFile type="PolyData" version="0.1" byte_order="LittleEndian">
 <PolyData>
  <Piece Name ="WaterBlock" NumberOfPoints="2140" NumberOfVerts="2140">
   <Points>
    <DataArray Name="Position" type="Float32"  NumberOfComponents="3" Format="ascii">
    0.01 0.0109845 0 0.03 0.0109845 0 0.05 0.0109845 0 0.09 0.0109845 0 0.07 0.0109845 0 0.13 0.0109845 0 0.11 0.0109845 0 0.19 0.0109845 0 0.15 0.0109845 0 0.17 0.0109845 0 0.01 0.0309845 0 0.01 0.0509845 0 0.01 0.0909845 0 0.01 0.0709845 0 0.01 0.110984 0 0.01 0.130984 0 0.01 0.150984 0 0.00713081 0.173528 0 0.03 0.0509845 0 0.05 0.0509845 0 0.05 0.0309845 0 0.03 0.0309845 0 0.09 0.0309845 0 0.09 0.0509845 0 0.07 0.0509845 0 0.07 0.0309845 0 0.05 0.0709845 0 0.03 0.0709845 0 0.03 0.0909845 0 0.05 0.0909845 0 0.09 0.0709845 0 0.07 0.0909845 0 0.07 0.0709845 0 0.09 0.0909845 0 0.11 0.0509845 0 0.13 0.0509845 0 0.11 0.0309845 0 0.13 0.0309845 0 0.15 0.0509845 0 0.17 0.0509845 0 0.19 0.0309845 0 0.15 0.0309845 0 0.17 0.0309845 0 0.19 0.0509845 0 0.13 0.0709845 0 0.13 0.0909845 0 0.11 0.0909845 0 0.11 0.0709845 0 0.15 0.0909845 0 0.17 0.0909845 0 0.15 0.0709845 0 0.19 0.0709845 0 0.17 0.0709845 0 0.19 0.0909845 0 0.05 0.130984 0 0.05 0.110984 0 0.03 0.110984 0 0.03 0.130984 0 0.07 0.130984 0 0.09 0.110984 0 0.07 0.110984 0 0.09 0.130984 0 0.03 0.150984 0 0.05 0.150984 0 0.0548762 0.167614 0 0.0212109 0.189791 0 0.042383 0.181492 0 0.0259981 0.168207 0 0.07 0.150984 0 0.09 0.150984 0 0.0626422 0.194486 0 0.0722786 0.178661 0 0.0858016 0.169505 0 0.102703 0.188192 0 0.11 0.130984 0 0.13 0.130984 0 0.11 0.110984 0 0.13 0.110984 0 0.17 0.110984 0 0.19 0.130984 0 0.15 0.110984 0 0.19 0.110984 0 0.15 0.130984 0 0.17 0.130984 0 0.13 0.150984 0 0.11 0.150984 0 0.128336 0.169846 0 0.106778 0.17023 0 0.126397 0.187688 0 0.148245 0.170364 0 0.19 0.150984 0 0.15 0.150984 0 0.17 0.150984 0 0.155161 0.192727 0 0.183667 0.169391 0 0.19274 0.185747 0 0.165463 0.173482 0 0.21 0.0109845 0 0.23 0.0109845 0 0.25 0.0109845 0 0.27 0.0109845 0 0.33 0.0109845 0 0.31 0.0109845 0 0.29 0.0109845 0 0.37 0.0109845 0 0.35 0.0109845 0 0.41 0.0109845 0 0.39 0.0109845 0 0.45 0.0109845 0 0.47 0.0109845 0 0.43 0.0109845 0 0.49 0.0109845 0 0.51 0.0109845 0 0.55 0.0109845 0 0.53 0.0109845 0 0.21 0.0509845 0 0.21 0.0309845 0 0.23 0.0309845 0 0.23 0.0509845 0 0.25 0.0509845 0 0.25 0.0309845 0 0.27 0.0509845 0 0.27 0.0309845 0 0.21 0.0709845 0 0.23 0.0709845 0 0.23 0.0909845 0 0.21 0.0909845 0 0.27 0.0709845 0 0.25 0.0909845 0 0.25 0.0709845 0 0.27 0.0909845 0 0.29 0.0509845 0 0.33 0.0509845 0 0.31 0.0509845 0 0.31 0.0309845 0 0.33 0.0309845 0 0.29 0.0309845 0 0.35 0.0309845 0 0.37 0.0309845 0 0.35 0.0509845 0 0.37 0.0509845 0 0.29 0.0709845 0 0.33 0.0709845 0 0.29 0.0909845 0 0.31 0.0909845 0 0.33 0.0909845 0 0.31 0.0709845 0 0.37 0.0709845 0 0.35 0.0909845 0 0.35 0.0709845 0 0.37 0.0909845 0 0.23 0.130984 0 0.21 0.130984 0 0.23 0.110984 0 0.21 0.110984 0 0.25 0.130984 0 0.27 0.130984 0 0.25 0.110984 0 0.27 0.110984 0 0.23 0.150984 0 0.224182 0.175657 0 0.21 0.150984 0 0.20643 0.169112 0 0.209932 0.194868 0 0.240388 0.168022 0 0.272894 0.188961 0 0.25 0.150984 0 0.27 0.150984 0 0.245409 0.190719 0 0.259309 0.175674 0 0.277266 0.167941 0 0.29 0.110984 0 0.33 0.110984 0 0.29 0.130984 0 0.33 0.130984 0 0.31 0.130984 0 0.31 0.110984 0 0.35 0.110984 0 0.37 0.130984 0 0.37 0.110984 0 0.35 0.130984 0 0.332738 0.191163 0 0.318998 0.172634 0 0.31 0.150984 0 0.33 0.150984 0 0.29 0.150984 0 0.312648 0.192529 0 0.292593 0.187741 0 0.300708 0.169925 0 0.356178 0.173 0 0.35 0.150984 0 0.37 0.150984 0 0.375377 0.170069 0 0.36434 0.190404 0 0.338533 0.169016 0 0.41 0.0509845 0 0.39 0.0509845 0 0.39 0.0309845 0 0.41 0.0309845 0 0.43 0.0309845 0 0.45 0.0309845 0 0.47 0.0509845 0 0.47 0.0309845 0 0.43 0.0509845 0 0.45 0.0509845 0 0.39 0.0909845 0 0.41 0.0709845 0 0.41 0.0909845 0 0.39 0.0709845 0 0.47 0.0909845 0 0.45 0.0709845 0 0.43 0.0909845 0 0.47 0.0709845 0 0.43 0.0709845 0 0.45 0.0909845 0 0.51 0.0509845 0 0.49 0.0309845 0 0.51 0.0309845 0 0.49 0.0509845 0 0.53 0.0309845 0 0.53 0.0509845 0 0.55 0.0309845 0 0.55 0.0509845 0 0.51 0.0709845 0 0.51 0.0909845 0 0.49 0.0909845 0 0.49 0.0709845 0 0.53 0.0909845 0 0.53 0.0709845 0 0.55 0.0909845 0 0.55 0.0709845 0 0.41 0.110984 0 0.41 0.130984 0 0.39 0.130984 0 0.39 0.110984 0 0.43 0.130984 0 0.43 0.110984 0 0.45 0.130984 0 0.45 0.110984 0 0.47 0.110984 0 0.47 0.130984 0 0.416519 0.170268 0 0.406868 0.188522 0 0.41 0.150984 0 0.39 0.150984 0 0.395673 0.170054 0 0.385492 0.189944 0 0.426481 0.191945 0 0.465362 0.188285 0 0.43 0.150984 0 0.45 0.150984 0 0.47 0.150984 0 0.445394 0.189665 0 0.436589 0.170338 0 0.457486 0.169043 0 0.49 0.130984 0 0.49 0.110984 0 0.51 0.130984 0 0.51 0.110984 0 0.53 0.110984 0 0.55 0.130984 0 0.53 0.130984 0 0.55 0.110984 0 0.49 0.150984 0 0.496827 0.169027 0 0.478226 0.172468 0 0.495564 0.188831 0 0.51 0.150984 0 0.516124 0.186301 0 0.55 0.150984 0 0.53 0.150984 0 0.538765 0.174606 0 0.520942 0.168966 0 0.556668 0.169256 0 0.547788 0.192155 0 0.0104569 0.230091 0 0.0077974 0.200666 0 0.0102101 0.283825 0 0.00955529 0.252451 0 0.0112416 0.325583 0 0.00899828 0.305382 0 0.00824076 0.345803 0 0.00645393 0.369731 0 0.0379375 0.217396 0 0.0404254 0.199018 0 0.0494701 0.230867 0 0.0189049 0.216476 0 0.0771321 0.220372 0 0.0960496 0.210925 0 0.0842834 0.19713 0 0.0610487 0.212405 0 0.0683329 0.240528 0 0.0925638 0.231427 0 0.0262497 0.242406 0 0.0396614 0.281225 0 0.0377547 0.264486 0 0.0444447 0.24734 0 0.0159933 0.267982 0 0.0584269 0.271879 0 0.0803331 0.282576 0 0.0859854 0.249381 0 0.0691489 0.258891 0 0.0929003 0.271568 0 0.115084 0.203594 0 0.116936 0.225297 0 0.112357 0.240731 0 0.133301 0.219059 0 0.149793 0.22403 0 0.14045 0.200124 0 0.166457 0.214704 0 0.191406 0.205416 0 0.18382 0.224611 0 0.16602 0.237536 0 0.172584 0.196617 0 0.117313 0.274272 0 0.128388 0.286377 0 0.141376 0.266402 0 0.106588 0.259551 0 0.143856 0.243385 0 0.128805 0.251333 0 0.194731 0.284122 0 0.150547 0.282255 0 0.160189 0.25831 0 0.17441 0.271475 0 0.1797 0.250125 0 0.195941 0.266814 0 0.0254177 0.296794 0 0.0443337 0.30078 0 0.0275995 0.324936 0 0.0434479 0.317947 0 0.0624761 0.328013 0 0.0837001 0.322243 0 0.0680986 0.308751 0 0.101696 0.292288 0 0.0644311 0.291455 0 0.0904356 0.304569 0 0.0275522 0.350264 0 0.0430927 0.341365 0 0.0472985 0.362785 0 0.0249466 0.368983 0 0.0840479 0.341362 0 0.0812387 0.360562 0 0.101634 0.358022 0 0.0636594 0.345919 0 0.0630497 0.370134 0 0.0942228 0.377504 0 0.148068 0.299729 0 0.13005 0.317442 0 0.119783 0.302997 0 0.107659 0.318949 0 0.187284 0.333416 0 0.169891 0.289288 0 0.152265 0.315407 0 0.17217 0.317665 0 0.18153 0.302011 0 0.196702 0.315513 0 0.141743 0.334805 0 0.122896 0.339153 0 0.118415 0.361983 0 0.13449 0.3748 0 0.105231 0.337126 0 0.138872 0.356116 0 0.173267 0.37213 0 0.176765 0.351833 0 0.162557 0.3347 0 0.156926 0.377244 0 0.196381 0.350964 0 0.15698 0.354764 0 0.191796 0.374988 0 0.00739922 0.421422 0 0.00829237 0.397713 0 0.00768983 0.449014 0 0.00719551 0.507694 0 0.00925054 0.485091 0 0.010059 0.550741 0 0.0112463 0.534495 0 0.0216053 0.390057 0 0.0231447 0.41703 0 0.0415458 0.382477 0 0.0415154 0.401288 0 0.041837 0.418193 0 0.0749952 0.38529 0 0.0615698 0.395031 0 0.066803 0.413891 0 0.0842465 0.41047 0 0.0968841 0.39682 0 0.10291 0.41855 0 0.0458028 0.45954 0 0.0308866 0.469045 0 0.0148399 0.468931 0 0.0382722 0.440344 0 0.0228822 0.441194 0 0.0915702 0.471451 0 0.0774981 0.433673 0 0.0624588 0.451666 0 0.0870665 0.45158 0 0.0710719 0.468677 0 0.0583509 0.431809 0 0.0980476 0.436464 0 0.131596 0.392237 0 0.117986 0.408535 0 0.113142 0.384819 0 0.141901 0.40886 0 0.128947 0.425343 0 0.167375 0.421224 0 0.187738 0.393796 0 0.172236 0.401638 0 0.186605 0.421411 0 0.156471 0.39517 0 0.143123 0.445356 0 0.126266 0.456746 0 0.147105 0.466675 0 0.117885 0.440177 0 0.107718 0.460913 0 0.161548 0.44873 0 0.177586 0.440057 0 0.185581 0.459812 0 0.150113 0.42664 0 0.166898 0.469497 0 0.0544495 0.4803 0 0.024728 0.501698 0 0.0429989 0.51182 0 0.0375351 0.489641 0 0.103052 0.517067 0 0.0790575 0.487757 0 0.0888244 0.501881 0 0.0596706 0.498231 0 0.0682915 0.514661 0 0.0568981 0.528541 0 0.0395919 0.535678 0 0.0366524 0.553156 0 0.0242359 0.524349 0 0.0973055 0.55931 0 0.0852341 0.523999 0 0.0707593 0.545297 0 0.0584095 0.554279 0 0.090427 0.540844 0 0.119061 0.47912 0 0.138005 0.481192 0 0.13593 0.502165 0 0.105438 0.489382 0 0.118122 0.504772 0 0.153819 0.495306 0 0.157674 0.517383 0 0.191386 0.501081 0 0.169055 0.487158 0 0.175082 0.510584 0 0.188634 0.481125 0 0.119928 0.527907 0 0.131731 0.545361 0 0.111348 0.54431 0 0.139274 0.52277 0 0.152813 0.537833 0 0.154461 0.556825 0 0.191066 0.546002 0 0.177405 0.529101 0 0.172494 0.548828 0 0.20165 0.224862 0 0.235335 0.217778 0 0.234136 0.238083 0 0.217705 0.217346 0 0.227037 0.19681 0 0.273911 0.211954 0 0.266917 0.240239 0 0.253987 0.2235 0 0.255986 0.204936 0 0.282714 0.229865 0 0.234084 0.26223 0 0.219517 0.283887 0 0.240358 0.278603 0 0.198316 0.245724 0 0.215218 0.264073 0 0.217097 0.242914 0 0.280115 0.281055 0 0.263434 0.26235 0 0.24979 0.248341 0 0.283487 0.252758 0 0.260118 0.279029 0 0.310895 0.213204 0 0.319309 0.238078 0 0.292025 0.206817 0 0.327758 0.214998 0 0.300661 0.230707 0 0.358913 0.215499 0 0.345728 0.198727 0 0.342179 0.224755 0 0.375477 0.20833 0 0.355871 0.240749 0 0.372566 0.232877 0 0.318754 0.28154 0 0.292835 0.2708 0 0.302342 0.252128 0 0.318192 0.262809 0 0.338195 0.265403 0 0.359591 0.280507 0 0.340034 0.283505 0 0.374709 0.267909 0 0.358571 0.257898 0 0.334285 0.245463 0 0.232989 0.300592 0 0.220999 0.31436 0 0.208785 0.332788 0 0.2303 0.331092 0 0.207591 0.298576 0 0.246899 0.317697 0 0.271206 0.303692 0 0.267184 0.32182 0 0.252982 0.29784 0 0.284249 0.328275 0 0.20863 0.36954 0 0.217602 0.351663 0 0.236865 0.350535 0 0.231275 0.372518 0 0.267367 0.346343 0 0.250127 0.366098 0 0.282593 0.355364 0 0.267479 0.370037 0 0.252057 0.338544 0 0.319815 0.306205 0 0.302389 0.315617 0 0.28927 0.301802 0 0.317595 0.328932 0 0.303
[...]
   <PointData  Vectors="vector">
    <DataArray Name="SortedParticle_ID" type="Int32" Format="ascii">
    0 1 2 3 4 5 6 7 8 9 10 11 12 13 14 15 16 17 18 19 20 21 22 23 24 25 26 27 28 29 30 31 32 33 34 35 36 37 38 39 40 41 42 43 44 45 46 47 48 49 50 51 52 53 54 55 56 57 58 59 60 61 62 63 64 65 66 67 68 69 70 71 72 73 74 75 76 77 78 79 80 81 82 83 84 85 86 87 88 89 90 91 92 93 94 95 96 97 98 99 100 101 102 103 104 105 106 107 108 109 110 111 112 113 114 115 116 117 118 119 120 121 122 123 124 125 126 127 128 129 130 131 132 133 134 135 136 137 138 139 140 141 142 143 144 145 146 147 148 149 150 151 152 153 154 155 156 157 158 159 160 161 162 163 164 165 166 167 168 169 170 171 172 173 174 175 176 177 178 179 180 181 182 183 184 185 186 187 188 189 190 191 192 193 194 195 196 197 198 199 200 201 202 203 204 205 206 207 208 209 210 211 212 213 214 215 216 217 218 219 220 221 222 223 224 225 226 227 228 229 230 231 232 233 234 235 236 237 238 239 240 241 242 243 244 245 246 247 248 249 250 251 252 253 254 255 256 257 258 259 260 261 262 263 264 265 266 267 268 269 270 271 272 273 274 275 276 277 278 279 280 281 282 283 284 285 286 287 288 289 290 291 292 293 294 295 296 297 298 299 300 301 302 303 304 305 306 307 308 309 310 311 312 313 314 315 316 317 318 319 320 321 322 323 324 325 326 327 328 329 330 331 332 333 334 335 336 337 338 339 340 341 342 343 344 345 346 347 348 349 350 351 352 353 354 355 356 357 358 359 360 361 362 363 364 365 366 367 368 369 370 371 372 373 374 375 376 377 378 379 380 381 382 383 384 385 386 387 388 389 390 391 392 393 394 395 396 397 398 399 400 401 402 403 404 405 406 407 408 409 410 411 412 413 414 415 416 417 418 419 420 421 422 423 424 425 426 427 428 429 430 431 432 433 434 435 436 437 438 439 440 441 442 443 444 445 446 447 448 449 450 451 452 453 454 455 456 457 458 459 460 461 462 463 464 465 466 467 468 469 470 471 472 473 474 475 476 477 478 479 480 481 482 483 484 485 486 487 488 489 490 491 492 493 494 495 496 497 498 499 500 501 502 503 504 505 506 507 508 509 510 511 512 513 514 515 516 517 518 519 520 521 522 523 524 525 526 527 528 529 530 531 532 533 534 535 536 537 538 539 540 541 542 543 544 545 546 547 548 549 550 551 552 553 554 555 556 557 558 559 560 561 562 563 564 565 566 567 568 569 570 571 572 573 574 575 576 577 578 579 580 581 582 583 584 585 586 587 588 589 590 591 592 593 594 595 596 597 598 599 600 601 602 603 604 605 606 607 608 609 610 611 612 613 614 615 616 617 618 619 620 621 622 623 624 625 626 627 628 629 630 631 632 633 634 635 636 637 638 639 640 641 642 643 644 645 646 647 648 649 650 651 652 653 654 655 656 657 658 659 660 661 662 663 664 665 666 667 668 669 670 671 672 673 674 675 676 677 678 679 680 681 682 683 684 685 686 687 688 689 690 691 692 693 694 695 696 697 698 699 700 701 702 703 704 705 706 707 708 709 710 711 712 713 714 715 716 717 718 719 720 721 722 723 724 725 726 727 728 729 730 731 732 733 734 735 736 737 738 739 740 741 742 743 744 745 746 747 748 749 750 751 752 753 754 755 756 757 758 759 760 761 762 763 764 765 766 767 768 769 770 771 772 773 774 775 776 777 778 779 780 781 782 783 784 785 786 787 788 789 790 791 792 793 794 795 796 797 798 799 800 801 802 803 804 805 806 807 808 809 810 811 812 813 814 815 816 817 818 819 820 821 822 823 824 825 826 827 828 829 830 831 832 833 834 835 836 837 838 839 840 841 842 843 844 845 846 847 848 849 850 851 852 853 854 855 856 857 858 859 860 861 862 863 864 865 866 867 868 869 870 871 872 873 874 875 876 877 878 879 880 881 882 883 884 885 886 887 888 889 890 891 892 893 894 895 896 897 898 899 900 901 902 903 904 905 906 907 908 909 910 911 912 913 914 915 916 917 918 919 920 921 922 923 924 925 926 927 928 929 930 931 932 933 934 935 936 937 938 939 940 941 942 943 944 945 946 947 948 949 950 951 952 953 954 955 956 957 958 959 960 961 962 963 964 965 966 967 968 969 970 971 972 973 974 975 976 977 978 979 980 981 982 983 984 985 986 987 988 989 990 991 992 993 994 995 996 997 998 999 1000 1001 1002 1003 1004 1005 1006 1007 1008 1009 1010 1011 1012 1013 1014 1015 1016 1017 1018 1019 1020 1021 1022 1023 1024 1025 1026 1027 1028 1029 1030 1031 1032 1033 1034 1035 1036 1037 1038 1039 1040 1041 1042 1043 1044 1045 1046 1047 1048 1049 1050 1051 1052 1053 1054 1055 1056 1057 1058 1059 1060 1061 1062 1063 1064 1065 1066 1067 1068 1069 1070 1071 1072 1073 1074 1075 1076 1077 1078 1079 1080 1081 1082 1083 1084 1085 1086 1087 1088 1089 1090 1091 1092 1093 1094 1095 1096 1097 1098 1099 1100 1101 1102 1103 1104 1105 1106 1107 1108 1109 1110 1111 1112 1113 1114 1115 1116 1117 1118 1119 1120 1121 1122 1123 1124 1125 1126 1127 1128 1129 1130 1131 1132 1133 1134 1135 1136 1137 1138 1139 1140 1141 1142 1143 1144 1145 1146 1147 1148 1149 1150 1151 1152 1153 1154 1155 1156 1157 1158 1159 1160 1161 1162 1163 1164 1165 1166 1167 1168 1169 1170 1171 1172 1173 1174 1175 1176 1177 1178 1179 1180 1181 1182 1183 1184 1185 1186 1187 1188 1189 1190 1191 1192 1193 1194 1195 1196 1197 1198 1199 1200 1201 1202 1203 1204 1205 1206 1207 1208 1209 1210 1211 1212 1213 1214 1215 1216 1217 1218 1219 1220 1221 1222 1223 1224 1225 1226 1227 1228 1229 1230 1231 1232 1233 1234 1235 1236 1237 1238 1239 1240 1241 1242 1243 1244 1245 1246 1247 1248 1249 1250 1251 1252 1253 1254 1255 1256 1257 1258 1259 1260 1261 1262 1263 1264 1265 1266 1267 1268 1269 1270 1271 1272 1273 1274 1275 1276 1277 1278 1279 1280 1281 1282 1283 1284 1285 1286 1287 1288 1289 1290 1291 1292 1293 1294 1295 1296 1297 1298 1299 1300 1301 1302 1303 1304 1305 1306 1307 1308 1309 1310 1311 1312 1313 1314 1315 1316 1317 1318 1319 1320 1321 1322 1323 1324 1325 1326 1327 1328 1329 1330 1331 1332 1333 1334 1335 1336 1337 1338 1339 1340 1341 1342 1343 1344 1345 1346 1347 1348 1349 1350 1351 1352 1353 1354 1355 1356 1357 1358 1359 1360 1361 1362 1363 1364 1365 1366 1367 1368 1369 1370 1371 1372 1373 1374 1375 1376 1377 1378 1379 1380 1381 1382 1383 1384 1385 1386 1387 1388 1389 1390 1391 1392 1393 1394 1395 1396 1397 1398 1399 1400 1401 1402 1403 1404 1405 1406 1407 1408 1409 1410 1411 1412 1413 1414 1415 1416 1417 1418 1419 1420 1421 1422 1423 1424 1425 1426 1427 1428 1429 1430 1431 1432 1433 1434 1435 1436 1437 1438 1439 1440 1441 1442 1443 1444 1445 1446 1447 1448 1449 1450 1451 1452 1453 1454 1455 1456 1457 1458 1459 1460 1461 1462 1463 1464 1465 1466 1467 1468 1469 1470 1471 1472 1473 1474 1475 1476 1477 1478 1479 1480 1481 1482 1483 1484 1485 1486 1487 1488 1489 1490 1491 1492 1493 1494 1495 1496 1497 1498 1499 1500 1501 1502 1503 1504 1505 1506 1507 1508 1509 1510 1511 1512 1513 1514 1515 1516 1517 1518 1519 1520 1521 1522 1523 1524 1525 1526 1527 1528 1529 1530 1531 1532 1533 1534 1535 1536 1537 1538 1539 1540 1541 1542 1543 1544 1545 1546 1547 1548 1549 1550 1551 1552 1553 1554 1555 1556 1557 1558 1559 1560 1561 1562 1563 1564 1565 1566 1567 1568 1569 1570 1571 1572 1573 1574 1575 1576 1577 1578 1579 1580 1581 1582 1583 1584 1585 1586 1587 1588 1589 1590 1591 1592 1593 1594 1595 1596 1597 1598 1599 1600 1601 1602 1603 1604 1605 1606 1607 1608 1609 1610 1611 1612 1613 1614 1615 1616 1617 1618 1619 1620 1621 1622 1623 1624 1625 1626 1627 1628 1629 1630 1631 1632 1633 1634 1635 1636 1637 1638 1639 1640 1641 1642 1643 1644 1645 1646 1647 1648 1649 1650 1651 1652 1653 1654 1655 1656 1657 1658 1659 1660 1661 1662 1663 1664 1665 1666 1667 1668 1669 1670 1671 1672 1673 1674 1675 1676 1677 1678 1679 1680 1681 1682 1683 1684 1685 1686 1687 1688 1689 1690 1691 1692 1693 1694 1695 1696 1697 1698 1699 1700 1701 1702 1703 1704 1705 1706 1707 1708 1709 1710 1711 1712 1713 1714 1715 1716 1717 1718 1719 1720 1721 1722 1723 1724 1725 1726 1727 1728 1729 1730 1731 1732 1733 1734 1735 1736 1737 1738 1739 1740 1741 1742 1743 1744 1745 1746 1747 1748 1749 1750 1751 1752 1753 1754 1755 1756 1757 1758 1759 1760 1761 1762 1763 1764 1765 1766 1767 1768 1769 1770 1771 1772 1773 1774 1775 1776 1777 1778 1779 1780 1781 1782 1783 1784 1785 1786 1787 1788 1789 1790 1791 1792 1793 1794 1795 1796 1797 1798 1799 1800 1801 1802 1803 1804 1805 1806 1807 1808 1809 1810 1811 1812 1813 1814 1815 1816 1817 1818 1819 1820 1821 1822 1823 1824 1825 1826 1827 1828 1829 1830 1831 1832 1833 1834 1835 1836 1837 1838 1839 1840 1841 1842 1843 1844 1845 1846 1847 1848 1849 1850 1851 1852 1853 1854 1855 1856 1857 1858 1859 1860 1861 1862 1863 1864 1865 1866 1867 1868 1869 1870 1871 1872 1873 1874 1875 1876 1877 1878 1879 1880 1881 1882 1883 1884 1885 1886 1887 1888 1889 1890 1891 1892 1893 1894 1895 1896 1897 1898 1899 1900 1901 1902 1903 1904 1905 1906 1907 1908 1909 1910 1911 1912 1913 1914 1915 1916 1917 1918 1919 1920 1921 1922 1923 1924 1925 1926 1927 1928 1929 1930 1931 1932 1933 1934 1935 1936 1937 1938 1939 1940 1941 1942 1943 1944 1945 1946 1947 1948 1949 1950 1951 1952 1953 1954 1955 1956 1957 1958 1959 1960 1961 1962 1963 1964 1965 1966 1967 1968 1969 1970 1971 1972 1973 1974 1975 1976 1977 1978 1979 1980 1981 1982 1983 1984 1985 1986 1987 1988 1989 1990 1991 1992 1993 1994 1995 1996 1997 1998 1999 2000 2001 2002 2003 2004 2005 2006 2007 2008 2009 2010 2011 2012 2013 2014 2015 2016 2017 2018 2019 2020 2021 2022 2023 2024 2025 2026 2027 2028 2029 2030 2031 2032 2033 2034 2035 2036 2037 2038 2039 2040 2041 2042 2043 2044 2045 2046 2047 2048 2049 2050 2051 2052 2053 2054 2055 2056 2057 2058 2059 2060 2061 2062 2063 2064 2065 2066 2067 2068 2069 2070 2071 2072 2073 2074 2075 2076 2077 2078 2079 2080 2081 2082 2083 2084 2085 2086 2087 2088 2089 2090 2091 2092 2093 2094 2095 2096 2097 2098 2099 2100 2101 2102 2103 2104 2105 2106 2107 2108 2109 2110 2111 2112 2113 2114 2115 2116 2117 2118 2119 2120 2121 2122 2123 2124 2125 2126 2127 2128 2129 2130 2131 2132 2133 2134 2135 2136 2137 2138 2139 
    </DataArray>
    <DataArray Name="OriginalID" type="Int32" Format="ascii">
    4 40 76 148 112 220 184 328 256 292 5 6 0 7 1 2 3 395 42 78 77 41 149 150 114 113 79 43 36 72 151 108 115 144 186 222 185 221 258 294 329 257 293 330 223 216 180 187 252 288 259 331 295 324 74 73 37 38 110 145 109 146 39 75 698 1921 381 742 111 147 2158 774 1318 1757 182 218 181 217 289 326 253 325 254 290 219 183 743 1194 455 1311 327 255 291 1107 879 683 1067 364 400 436 472 580 544 508 652 616 724 688 796 832 760 868 904 976 940 366 365 401 402 438 437 474 473 367 403 396 360 475 432 439 468 510 582 546 545 581 509 617 653 618 654 511 583 504 540 576 547 655 612 619 648 398 362 397 361 434 470 433 469 399 807 363 1147 646 745 747 435 471 665 709 813 505 577 506 578 542 541 613 650 649 614 738 1179 543 579 507 701 1386 1190 667 615 651 702 1231 1349 726 690 689 725 761 797 834 833 762 798 684 727 720 691 828 799 756 835 763 792 906 869 905 870 941 942 977 978 907 900 864 871 936 943 972 979 721 722 686 685 758 757 794 793 829 830 1030 1223 723 687 1341 713 1032 714 759 795 831 1101 1289 862 866 865 902 901 937 974 938 973 867 773 1037 674 903 1254 975 939 891 1277 710 779 379 1608 1705 80 1766 373 1964 211 301 263 415 161 165 1992 286 386 2136 212 416 2145 28 1732 315 140 241 2023 1990 1933 342 1871 450 493 1805 641 323 787 1829 142 778 93 2135 231 120 284 349 226 249 2125 382 351 1687 1721 1890 1868 380 170 240 1954 2002 2157 50 377 413 100 227 1930 97 196 202 313 156 25 27 2137 20 309 129 2203 1994 2164 1958 95 166 55 125 2133 51 61 169 99 47 208 56 1870 356 141 358 457 1780 1483 422 341 2103 1965 106 2119 277 167 174 2150 232 2104 152 487 316 135 101 248 210 164 81 1793 2091 447 85 154 121 48 235 2159 12 26 131 205 138 16 83 88 139 201 155 52 119 46 1904 2054 451 2170 1854 204 198 394 1307 1377 372 1387 298 283 33 2058 239 35 271 17 1918 2074 285 24 195 104 1861 94 58 200 1821 275 282 321 59 233 1902 118 1252 715 776 1635 746 883 814 744 1309 932 1664 339 347 1844 71 374 459 1069 1555 1276 336 1272 863 1508 752 1031 931 1329 647 1278 882 1496 215 483 461 431 1244 820 786 748 919 848 173 1806 306 387 132 66 247 2248 1924 345 486 308 265 495 1731 1977 65 68 172 1338 967 1820 296 887 1114 1301 854 2265 1562 818 1258 1660 411 465 191 2056 1151 489 84 1385 991 851 1070 1255 1185 777 1298 952 809 781 861 1216 780 819 997 916 1232 1396 1079 1266 783 1279 849 1066 1250 1217 810 1211 811 881 740 1242 1028 846 1245 852 965 858 1441 1205 785 1326 1233 986 1686 753 1213 1738 680 1267 993 933 935 1201 1036 996 717 1004 1187 1280 755 885 857 1206 1042 1218 920 1029 1248 784 1064 817 2138 918 1646 1056 1247 1071 1077 1193 1198 2264 955 1207 1020 1888 60 23 123 162 1998 1745 1812 1910 1591 2260 354 53 21 91 136 2089 176 337 311 158 31 1758 1943 488 1723 430 297 1001 1257 712 889 454 467 1771 527 429 1039 859 682 1928 281 679 850 159 143 122 303 177 269 197 62 1669 32 54 49 18 96 160 357 90 193 199 276 393 270 462 34 485 789 63 1901 1995 494 2046 13 322 102 1710 11 279 189 2269 1384 2090 1690 491 1075 790 1212 1262 962 1188 1215 1260 1374 1222 929 1076 1225 1027 1208 749 788 1112 1005 1235 827 1184 719 886 1352 2272 1274 1026 1324 1676 860 2255 1160 925 1283 1171 1096 1058 1350 896 1174 1146 1072 884 1722 930 1191 999 954 1181 1111 69 1408 718 1202 1073 1303 1395 1292 971 1034 1227 1294 998 1509 1486 1192 960 897 1485 1251 1149 1214 921 963 927 1365 1228 1224 1204 1038 888 1354 1474 1012 1048 1120 1084 1156 1049 1013 1050 1014 1157 1085 1086 1158 1122 1121 1015 1051 1044 1008 1159 1087 1080 1116 1152 1123 1046 1009 1010 1045 1154 1082 1118 1081 1153 1117 1287 1221 1011 1047 628 644 1155 1083 1119 705 1475 741 2253 815 1054 1136 1091 1939 2153 1605 2275 1535 1950 1088 1135 1065 1375 1525 1170 1125 1658 946 1126 1885 1264 1629 1061 1059 1019 1951 1543 1344 1090 984 877 911 1130 1098 839 1165 874 2213 2053 948 1128 1915 1176 1370 1053 1756 1168 1127 1094 1736 1838 1055 2245 1093 912 983 1095 1922 1132 1163 1768 1164 947 1744 1092 1595 1383 895 791 1497 1270 1148 876 1798 1431 1286 1057 1275 958 1518 1452 1150 924 1464 1322 1186 1476 1432 1728 1573 1021 1550 1581 1345 1343 1424 1378 1457 1443 1319 1741 1436 1621 1514 1523 1600 1665 1782 1653 1760 1717 1491 1534 2276 1511 1479 1547 1811 1769 1666 1129 1594 1645 985 1133 1570 1679 1680 1604 1803 1578 1691 1743 1097 1720 1695 1637 1590 1668 2273 1572 1567 1566 1789 1848 1779 2258 1052 2256 1671 1702 1592 1602 1716 2268 1715 1733 2257 1850 1688 1842 2254 2240 1828 1914 1773 1682 1835 1677 1724 1761 1814 2238 2221 1840 1846 2251 2243 2244 2232 1786 2197 1917 2231 1785 2185 242 2182 414 1746 1873 417 421 30 423 1966 375 224 2060 320 2057 214 1944 261 213 424 1985 2059 1406 1837 2106 251 229 9 238 194 14 237 273 153 352 124 44 70 137 87 1935 2007 458 2116 389 2027 230 116 274 266 228 1368 1937 264 1963 419 171 117 207 1953 412 262 22 340 392 234 418 425 1427 826 1940 456 332 244 299 15 1466 1929 2005 1261 1517 2270 1433 178 1404 1905 179 130 133 206 314 92 346 126 359 1971 57 64 203 302 134 317 67 86 89 355 338 1739 1867 128 385 1675 2101 348 82 2259 307 10 19 268 29 2184 1115 2073 98 2038 893 45 353 318 1236 105 2166 1297 492 1962 892 188 1435 1787 448 1240 300 1538 452 1321 1507 305 1775 246 2100 2171 1246 923 1753 1330 1639 1296 190 1300 1339 1430 1932 428 267 1241 8 1180 1196 970 1074 453 1419 2024 1209 390 236 1942 312 956 992 966 964 1109 1355 1718 1453 1041 928 856 1333 934 1454 1362 1447 1530 1281 1651 1388 1421 1488 1529 1348 2050 1284 1510 1606 1310 898 1505 1498 1991 961 1195 1399 1729 1993 1312 1906 1450 1619 1420 1552 1078 1403 1334 1471 1463 1819 1423 1429 1539 388 1405 1458 409 1625 1367 1253 1249 1323 1007 1239 1462 1295 1400 1531 1043 1446 1366 1394 1363 1455 1617 1402 1418 1522 1410 1414 1364 1356 1482 1392 1448 1415 1560 1422 1569 1549 1413 1389 1670 1393 1425 1830 1643 1548 1337 1357 1708 1706 1673 1470 1409 1444 163 1499 1438 1358 1417 1412 391 1851 1900 1843 1506 1381 1335 1528 1382 1524 1282 1472 1494 1542 1504 1575 1503 1707 1473 1439 1304 449 225 1411 1557 1501 1369 1407 1162 1631 1541 1500 1709 1624 1314 1526 1346 1449 378 1610 1325 1477 1391 1513 1574 350 1490 1545 1563 1533 1579 1576 2277 1672 1544 1588 1703 1613 1652 1598 1692 1683 1568 1795 1642 1615 1655 1778 2274 1633 2025 1661 103 1650 1437 1426 1749 1647 1461 1628 384 1390 1527 319 420 1737 460 1694 343 1360 1719 1416 376 1609 1599 1596 1481 1616 1428 1626 1512 1478 1484 1632 1607 1644 1589 1593 1681 1824 310 1713 1603 1638 2222 1556 1582 1546 1601 1636 2075 1648 127 1459 1583 1823 304 1831 1725 1551 1791 1818 1839 1872 1627 1649 1698 1748 1847 1493 1714 1788 1797 1809 1742 272 1614 1654 1623 1640 1611 344 192 1659 1565 1684 1586 1656 1641 1630 1492 1587 1580 1553 383 1597 1577 1755 1727 1532 245 1585 175 2230 1764 1957 1751 1536 1468 2262 2263 2261 107 1834 1759 1689 2242 1841 2252 1833 2191 1857 1976 1808 1747 1810 1657 1697 1781 1765 157 2249 2229 1711 1674 1927 1899 1853 243 2155 529 2097 2177 1825 1730 2227 2205 2026 287 1776 466 2267 2246 2188 2228 1898 1801 496 1770 1832 1752 280 2266 1612 1561 1845 1678 1762 2199 1836 2247 1701 1704 2271 1784 2241 1813 1700 1849 1734 1767 209 1796 1693 1712 1754 1740 1783 1804 2250 1726 2237 2233 2225 2239 1790 2234 463 2209 2235 2236 1816 2201 1774 2207 2210 2070 2192 2212 2146 1169 2121 1792 2200 2211 2220 1166 1875 982 1799 1018 2154 1138 2088 988 1023 2084 1025 2183 2162 2175 2120 2123 2072 2004 1852 1883 1874 944 949 1936 1903 1089 2086 2186 1060 2163 1948 1161 1886 1986 1131 910 405 1858 913 2033 693 915 1361 2092 477 499 604 1105 539 1892 1197 981 2036 950 2055 1975 2218 500 334 2193 2029 1750 2179 2216 2082 2139 2142 2028 1973 2149 563 2000 168 2206 2165 2189 2208 2190 2226 2187 2204 1855 2098 875 2173 1826 2161 2219 427 1807 1777 2223 2217 1827 2156 1822 1667 2214 1735 1763 2180 1772 278 1800 531 1699 250 335 1979 1794 2129 2181 1802 2147 410 426 2174 1947 2215 2169 2224 1815 2202 2128 2114 2196 2126 2131 2160 2020 2194 2198 2111 2037 1988 1960 1945 2096 1978 2172 2124 2130 2132 2112 1961 2032 1996 2081 2083 2016 1926 2021 2143 1137 2195 1884 2178 2168 2144 370 2015 1880 2127 521 2134 2117 2118 2151 2095 2064 2152 2099 2141 2148 2048 2068 2035 2014 2047 2109 1856 1982 2113 2006 2085 1919 501 1869 1865 446 2069 1916 2010 1968 1999 1909 2043 1124 2044 408 1959 1896 371 1879 2052 1100 1923 908 800 2077 1878 2017 731 1912 2105 2062 2107 980 2110 2041 2078 2018 765 2042 1987 1099 2045 621 987 1934 1139 951 639 406 597 2079 2034 1983 562 611 872 1989 571 2051 2176 2022 2030 2040 2167 1167 2093 2066 1173 2108 1876 368 445 503 260 528 369 561 2076 2071 656 1955 1981 520 635 441 1931 1949 2031 523 1974 498 443 533 1102 841 564 676 1908 843 1331 694 767 607 945 442 519 1172 1967 575 558 522 1063 2013 482 557 643 548 2067 1134 497 2009 2122 1895 555 568 481 1911 536 560 566 2102 1862 842 637 766 596 636 584 530 2140 599 2080 605 2063 1863 1913 1860 598 2065 537 1980 2049 1946 1938 1016 535 484 1887 645 559 1907 464 574 801 513 1925 1893 572 404 549 1941 602 1970 1017 2011 516 569 476 2008 1952 565 556 638 692 407 1997 2003 1956 490 1894 1353 534 502 1897 634 517 2039 1889 524 600 526 518 1178 532 642 444 2001 1984 1969 553 1920 333 2061 840 570 2012 595 1881 2115 601 1265 926 603 551 1864 671 620 1033 675 914 808 1891 802 1859 697 1104 1140 480 1024 594 514 764 837 608 625 512 659 589 479 1540 585 844 989 1866 878 735 1068 623 1882 666 768 805 729 660 550 770 1189 626 1022 953 606 633 803 909 661 587 1877 730 836 1340 968 592 554 669 1144 624 586 1000 695 622 657 838 593 703 734 873 670 662 1299 737 772 696 1106 588 732 1320 700 1141 630 627 769 806 552 1243 591 632 590 668 707 1142 663 629 1175 1103 1200 525 733 640 804 538 1062 1219 515 2087 728 609 2019 440 1003 658 2094 573 1972 1182 1177 478 610 
    </DataArray>
    <DataArray Name="Density" type="Float32" Format="ascii">