<?xml version="1.0"?>
<VTKFile type="PolyData" version="0.1" byte_order="LittleEndian">
 <PolyData>
  <Piece Name ="WaterBlock" NumberOfPoints="2201" NumberOfVerts="2201">
   <Points>
    <DataArray Name="Position" type="Float32"  NumberOfComponents="3" Format="ascii">
    0.01 0.00677418 0 0.03 0.00677418 0 0.05 0.00677418 0 0.09 0.00677418 0 0.07 0.00677418 0 0.11 0.00677418 0 0.13 0.00677418 0 0.19 0.00677418 0 0.15 0.00677418 0 0.17 0.00677418 0 0.01 0.0467742 0 0.01 0.0267742 0 0.01 0.0667742 0 0.01 0.0867742 0 0.01 0.106774 0 0.01 0.146774 0 0.01 0.126774 0 0.0100394 0.174631 0 0.03 0.0467742 0 0.05 0.0467742 0 0.03 0.0267742 0 0.05 0.0267742 0 0.07 0.0467742 0 0.07 0.0267742 0 0.09 0.0467742 0 0.09 0.0267742 0 0.05 0.0667742 0 0.03 0.0867742 0 0.03 0.0667742 0 0.05 0.0867742 0 0.09 0.0867742 0 0.07 0.0667742 0 0.09 0.0667742 0 0.07 0.0867742 0 0.13 0.0467742 0 0.11 0.0467742 0 0.11 0.0267742 0 0.13 0.0267742 0 0.19 0.0267742 0 0.17 0.0267742 0 0.15 0.0267742 0 0.19 0.0467742 0 0.15 0.0467742 0 0.17 0.0467742 0 0.13 0.0867742 0 0.13 0.0667742 0 0.11 0.0667742 0 0.11 0.0867742 0 0.19 0.0667742 0 0.15 0.0867742 0 0.19 0.0867742 0 0.17 0.0667742 0 0.15 0.0667742 0 0.17 0.0867742 0 0.03 0.146774 0 0.03 0.106774 0 0.05 0.106774 0 0.05 0.126774 0 0.05 0.146774 0 0.03 0.126774 0 0.09 0.146774 0 0.09 0.106774 0 0.07 0.106774 0 0.07 0.146774 0 0.09 0.126774 0 0.07 0.126774 0 0.0134376 0.192714 0 0.0326493 0.184314 0 0.0222886 0.163239 0 0.0513151 0.183886 0 0.0469833 0.165474 0 0.0682766 0.165225 0 0.0822261 0.178492 0 0.0933617 0.165808 0 0.0978528 0.191921 0 0.0671009 0.192581 0 0.13 0.146774 0 0.13 0.126774 0 0.13 0.106774 0 0.11 0.106774 0 0.11 0.146774 0 0.11 0.126774 0 0.15 0.146774 0 0.19 0.106774 0 0.15 0.106774 0 0.17 0.106774 0 0.19 0.126774 0 0.17 0.126774 0 0.15 0.126774 0 0.19 0.146774 0 0.17 0.146774 0 0.113781 0.165148 0 0.14534 0.164206 0 0.130217 0.173439 0 0.113749 0.187476 0 0.14515 0.18825 0 0.18832 0.166322 0 0.183895 0.193449 0 0.168636 0.166386 0 0.16439 0.181703 0 0.23 0.00677418 0 0.21 0.00677418 0 0.27 0.00677418 0 0.25 0.00677418 0 0.31 0.00677418 0 0.29 0.00677418 0 0.33 0.00677418 0 0.37 0.00677418 0 0.35 0.00677418 0 0.41 0.00677418 0 0.39 0.00677418 0 0.45 0.00677418 0 0.47 0.00677418 0 0.43 0.00677418 0 0.51 0.00677418 0 0.49 0.00677418 0 0.53 0.00677418 0 0.55 0.00677418 0 0.21 0.0267742 0 0.23 0.0267742 0 0.23 0.0467742 0 0.21 0.0467742 0 0.27 0.0467742 0 0.27 0.0267742 0 0.25 0.0267742 0 0.25 0.0467742 0 0.23 0.0667742 0 0.23 0.0867742 0 0.21 0.0867742 0 0.21 0.0667742 0 0.25 0.0667742 0 0.27 0.0867742 0 0.27 0.0667742 0 0.25 0.0867742 0 0.29 0.0267742 0 0.29 0.0467742 0 0.33 0.0467742 0 0.33 0.0267742 0 0.31 0.0267742 0 0.31 0.0467742 0 0.37 0.0267742 0 0.37 0.0467742 0 0.35 0.0467742 0 0.35 0.0267742 0 0.29 0.0867742 0 0.33 0.0867742 0 0.33 0.0667742 0 0.29 0.0667742 0 0.31 0.0667742 0 0.31 0.0867742 0 0.35 0.0867742 0 0.35 0.0667742 0 0.37 0.0867742 0 0.37 0.0667742 0 0.21 0.146774 0 0.21 0.126774 0 0.23 0.106774 0 0.21 0.106774 0 0.23 0.126774 0 0.23 0.146774 0 0.27 0.126774 0 0.25 0.106774 0 0.25 0.146774 0 0.27 0.106774 0 0.25 0.126774 0 0.27 0.146774 0 0.197886 0.185119 0 0.227108 0.189049 0 0.224871 0.169518 0 0.208203 0.166685 0 0.243343 0.164371 0 0.280417 0.187353 0 0.244887 0.1893 0 0.260763 0.170723 0 0.278785 0.164524 0 0.263119 0.191234 0 0.29 0.126774 0 0.29 0.106774 0 0.31 0.146774 0 0.33 0.106774 0 0.31 0.106774 0 0.31 0.126774 0 0.33 0.146774 0 0.33 0.126774 0 0.29 0.146774 0 0.37 0.146774 0 0.35 0.106774 0 0.37 0.106774 0 0.37 0.126774 0 0.35 0.146774 0 0.35 0.126774 0 0.298203 0.168142 0 0.298601 0.188949 0 0.321704 0.186823 0 0.315885 0.166208 0 0.353742 0.166117 0 0.335414 0.167571 0 0.341655 0.188117 0 0.373234 0.166691 0 0.361434 0.188117 0 0.39 0.0467742 0 0.39 0.0267742 0 0.41 0.0467742 0 0.41 0.0267742 0 0.45 0.0267742 0 0.43 0.0467742 0 0.47 0.0467742 0 0.43 0.0267742 0 0.45 0.0467742 0 0.47 0.0267742 0 0.41 0.0867742 0 0.41 0.0667742 0 0.39 0.0667742 0 0.39 0.0867742 0 0.43 0.0667742 0 0.47 0.0867742 0 0.45 0.0867742 0 0.43 0.0867742 0 0.45 0.0667742 0 0.47 0.0667742 0 0.49 0.0467742 0 0.51 0.0467742 0 0.51 0.0267742 0 0.49 0.0267742 0 0.53 0.0267742 0 0.55 0.0467742 0 0.53 0.0467742 0 0.55 0.0267742 0 0.51 0.0867742 0 0.49 0.0667742 0 0.51 0.0667742 0 0.49 0.0867742 0 0.55 0.0867742 0 0.55 0.0667742 0 0.53 0.0867742 0 0.53 0.0667742 0 0.41 0.126774 0 0.39 0.126774 0 0.41 0.106774 0 0.39 0.106774 0 0.39 0.146774 0 0.41 0.146774 0 0.45 0.146774 0 0.43 0.146774 0 0.45 0.106774 0 0.43 0.106774 0 0.47 0.106774 0 0.45 0.126774 0 0.47 0.146774 0 0.47 0.126774 0 0.43 0.126774 0 0.402142 0.187901 0 0.38025 0.18602 0 0.393159 0.166549 0 0.411333 0.167442 0 0.421423 0.191085 0 0.459853 0.190497 0 0.466554 0.169439 0 0.449155 0.165895 0 0.429353 0.167144 0 0.439395 0.186067 0 0.51 0.146774 0 0.51 0.106774 0 0.49 0.126774 0 0.49 0.106774 0 0.49 0.146774 0 0.51 0.126774 0 0.55 0.106774 0 0.53 0.126774 0 0.53 0.106774 0 0.55 0.146774 0 0.53 0.146774 0 0.55 0.126774 0 0.477815 0.191636 0 0.502903 0.167758 0 0.495928 0.186305 0 0.483787 0.166062 0 0.521349 0.166344 0 0.521804 0.187383 0 0.54097 0.165836 0 0.55572 0.188514 0 0.559981 0.167343 0 0.538494 0.188752 0 0.00805405 0.225537 0 0.00841212 0.263732 0 0.0118422 0.245708 0 0.00883715 0.319032 0 0.00857913 0.294092 0 0.00923059 0.342603 0 0.00813458 0.378154 0 0.0284473 0.237539 0 0.0528113 0.232175 0 0.0418446 0.203479 0 0.0581647 0.213757 0 0.032448 0.219072 0 0.0164553 0.207733 0 0.0911391 0.235437 0 0.0956598 0.21206 0 0.0788751 0.206133 0 0.0734358 0.22822 0 0.0409103 0.25125 0 0.0541928 0.268424 0 0.0318468 0.265611 0 0.0179194 0.280092 0 0.0376851 0.287544 0 0.0574611 0.287291 0 0.084941 0.253698 0 0.0723292 0.267988 0 0.0919785 0.277325 0 0.0640284 0.247307 0 0.103282 0.258575 0 0.107365 0.231136 0 0.136182 0.221085 0 0.11582 0.210657 0 0.131108 0.199425 0 0.125348 0.235589 0 0.151457 0.233819 0 0.171062 0.227179 0 0.167229 0.202439 0 0.152561 0.210766 0 0.184743 0.216661 0 0.147734 0.286084 0 0.120196 0.254206 0 0.117144 0.275876 0 0.135424 0.271924 0 0.142008 0.252705 0 0.182751 0.242705 0 0.179447 0.283037 0 0.159446 0.270545 0 0.179779 0.262089 0 0.160925 0.25085 0 0.0222033 0.310949 0 0.0403231 0.303492 0 0.0414299 0.326761 0 0.0565053 0.317698 0 0.0800651 0.291615 0 0.0741194 0.329366 0 0.102489 0.292389 0 0.0699796 0.305143 0 0.0901247 0.313781 0 0.0940693 0.330759 0 0.0256257 0.335708 0 0.0319439 0.364107 0 0.0416175 0.349821 0 0.0134668 0.360933 0 0.0926227 0.374633 0 0.0610445 0.342071 0 0.0740646 0.378577 0 0.0580191 0.362679 0 0.0774953 0.353994 0 0.0941634 0.355082 0 0.137061 0.306107 0 0.111201 0.311855 0 0.123249 0.294988 0 0.119322 0.326722 0 0.141007 0.324048 0 0.191965 0.331278 0 0.16883 0.328527 0 0.164673 0.294535 0 0.190231 0.300251 0 0.157426 0.311204 0 0.181961 0.314698 0 0.142377 0.360414 0 0.112425 0.374941 0 0.135314 0.343079 0 0.109259 0.343477 0 0.121239 0.358993 0 0.150139 0.377039 0 0.16563 0.367381 0 0.189131 0.356148 0 0.17359 0.349925 0 0.15557 0.341122 0 0.188864 0.376758 0 0.00794738 0.402062 0 0.00689618 0.427563 0 0.00579034 0.455591 0 0.00632764 0.484264 0 0.00743111 0.512548 0 0.0100833 0.538627 0 0.0342496 0.382945 0 0.0416519 0.416204 0 0.0235009 0.419497 0 0.0244139 0.396047 0 0.0490706 0.401245 0 0.0544453 0.381322 0 0.100116 0.411191 0 0.0920698 0.394796 0 0.0707236 0.39856 0 0.0721308 0.415265 0 0.0900049 0.424975 0 0.0426912 0.462165 0 0.0242171 0.459931 0 0.0236405 0.440225 0 0.0426311 0.439354 0 0.059288 0.427363 0 0.0819114 0.465645 0 0.0768965 0.443306 0 0.0957855 0.442201 0 0.0975795 0.465939 0 0.0602773 0.449448 0 0.0624518 0.470539 0 0.14016 0.424751 0 0.147058 0.397304 0 0.119408 0.42299 0 0.13035 0.406703 0 0.129736 0.382413 0 0.113527 0.396054 0 0.173779 0.38596 0 0.158199 0.420496 0 0.189234 0.405333 0 0.164013 0.40228 0 0.179586 0.419436 0 0.116403 0.438783 0 0.114647 0.457626 0 0.141255 0.444875 0 0.132884 0.460015 0 0.156756 0.464803 0 0.17496 0.454091 0 0.19379 0.46704 0 0.181649 0.436971 0 0.159322 0.442088 0 0.0404968 0.503803 0 0.0241001 0.479274 0 0.0227835 0.498807 0 0.0455658 0.483447 0 0.101184 0.4885 0 0.0733525 0.513957 0 0.0774508 0.486181 0 0.0601306 0.494788 0 0.0886871 0.502439 0 0.102203 0.516628 0 0.0435074 0.56171 0 0.0567276 0.542347 0 0.0403565 0.527269 0 0.0573211 0.518815 0 0.022631 0.522124 0 0.0124499 0.55411 0 0.0338433 0.545569 0 0.0665526 0.559824 0 0.0863657 0.557294 0 0.0906833 0.530479 0 0.0743295 0.537364 0 0.102891 0.549986 0 0.118165 0.503631 0 0.138619 0.49992 0 0.135319 0.480624 0 0.116869 0.481387 0 0.1781 0.476041 0 0.172487 0.494489 0 0.179309 0.51175 0 0.193725 0.492204 0 0.154824 0.481066 0 0.156359 0.506775 0 0.126683 0.519677 0 0.113787 0.536765 0 0.131267 0.560746 0 0.149078 0.52217 0 0.132415 0.538785 0 0.147785 0.556101 0 0.195395 0.542328 0 0.17287 0.529474 0 0.156568 0.539864 0 0.177944 0.548528 0 0.222829 0.225697 0 0.230917 0.20842 0 0.203693 0.215779 0 0.200707 0.235342 0 0.209723 0.199663 0 0.252395 0.211875 0 0.287563 0.231766 0 0.270258 0.237749 0 0.285071 0.208214 0 0.268529 0.215923 0 0.243421 0.228141 0 0.199311 0.259542 0 0.242329 0.282553 0 0.232727 0.24692 0 0.224254 0.268252 0 0.215238 0.247911 0 0.216134 0.28449 0 0.199029 0.278649 0 0.244621 0.264505 0 0.267874 0.260724 0 0.263902 0.279549 0 0.283555 0.271721 0 0.255129 0.244924 0 0.331745 0.208058 0 0.319162 0.229353 0 0.301583 0.218923 0 0.311696 0.202771 0 0.355602 0.231658 0 0.369068 0.212388 0 0.374989 0.234044 0 0.351991 0.206591 0 0.337016 0.226372 0 0.290791 0.251954 0 0.304284 0.267234 0 0.308385 0.24434 0 0.32106 0.269266 0 0.328654 0.250226 0 0.335284 0.287583 0 0.341314 0.271013 0 0.359431 0.286603 0 0.361477 0.266537 0 0.346531 0.248512 0 0.369862 0.252759 0 0.209201 0.323988 0 0.209155 0.304321 0 0.22964 0.300149 0 0.229503 0.318382 0 0.286819 0.327865 0 0.253157 0.298345 0 0.271304 0.316349 0 0.250033 0.316865 0 0.274938 0.299251 0 0.208809 0.370116 0 0.205806 0.345413 0 0.227871 0.338394 0 0.223694 0.37793 0 0.223145 0
[...]
   <PointData  Vectors="vector">
    <DataArray Name="SortedParticle_ID" type="Int32" Format="ascii">
    0 1 2 3 4 5 6 7 8 9 10 11 12 13 14 15 16 17 18 19 20 21 22 23 24 25 26 27 28 29 30 31 32 33 34 35 36 37 38 39 40 41 42 43 44 45 46 47 48 49 50 51 52 53 54 55 56 57 58 59 60 61 62 63 64 65 66 67 68 69 70 71 72 73 74 75 76 77 78 79 80 81 82 83 84 85 86 87 88 89 90 91 92 93 94 95 96 97 98 99 100 101 102 103 104 105 106 107 108 109 110 111 112 113 114 115 116 117 118 119 120 121 122 123 124 125 126 127 128 129 130 131 132 133 134 135 136 137 138 139 140 141 142 143 144 145 146 147 148 149 150 151 152 153 154 155 156 157 158 159 160 161 162 163 164 165 166 167 168 169 170 171 172 173 174 175 176 177 178 179 180 181 182 183 184 185 186 187 188 189 190 191 192 193 194 195 196 197 198 199 200 201 202 203 204 205 206 207 208 209 210 211 212 213 214 215 216 217 218 219 220 221 222 223 224 225 226 227 228 229 230 231 232 233 234 235 236 237 238 239 240 241 242 243 244 245 246 247 248 249 250 251 252 253 254 255 256 257 258 259 260 261 262 263 264 265 266 267 268 269 270 271 272 273 274 275 276 277 278 279 280 281 282 283 284 285 286 287 288 289 290 291 292 293 294 295 296 297 298 299 300 301 302 303 304 305 306 307 308 309 310 311 312 313 314 315 316 317 318 319 320 321 322 323 324 325 326 327 328 329 330 331 332 333 334 335 336 337 338 339 340 341 342 343 344 345 346 347 348 349 350 351 352 353 354 355 356 357 358 359 360 361 362 363 364 365 366 367 368 369 370 371 372 373 374 375 376 377 378 379 380 381 382 383 384 385 386 387 388 389 390 391 392 393 394 395 396 397 398 399 400 401 402 403 404 405 406 407 408 409 410 411 412 413 414 415 416 417 418 419 420 421 422 423 424 425 426 427 428 429 430 431 432 433 434 435 436 437 438 439 440 441 442 443 444 445 446 447 448 449 450 451 452 453 454 455 456 457 458 459 460 461 462 463 464 465 466 467 468 469 470 471 472 473 474 475 476 477 478 479 480 481 482 483 484 485 486 487 488 489 490 491 492 493 494 495 496 497 498 499 500 501 502 503 504 505 506 507 508 509 510 511 512 513 514 515 516 517 518 519 520 521 522 523 524 525 526 527 528 529 530 531 532 533 534 535 536 537 538 539 540 541 542 543 544 545 546 547 548 549 550 551 552 553 554 555 556 557 558 559 560 561 562 563 564 565 566 567 568 569 570 571 572 573 574 575 576 577 578 579 580 581 582 583 584 585 586 587 588 589 590 591 592 593 594 595 596 597 598 599 600 601 602 603 604 605 606 607 608 609 610 611 612 613 614 615 616 617 618 619 620 621 622 623 624 625 626 627 628 629 630 631 632 633 634 635 636 637 638 639 640 641 642 643 644 645 646 647 648 649 650 651 652 653 654 655 656 657 658 659 660 661 662 663 664 665 666 667 668 669 670 671 672 673 674 675 676 677 678 679 680 681 682 683 684 685 686 687 688 689 690 691 692 693 694 695 696 697 698 699 700 701 702 703 704 705 706 707 708 709 710 711 712 713 714 715 716 717 718 719 720 721 722 723 724 725 726 727 728 729 730 731 732 733 734 735 736 737 738 739 740 741 742 743 744 745 746 747 748 749 750 751 752 753 754 755 756 757 758 759 760 761 762 763 764 765 766 767 768 769 770 771 772 773 774 775 776 777 778 779 780 781 782 783 784 785 786 787 788 789 790 791 792 793 794 795 796 797 798 799 800 801 802 803 804 805 806 807 808 809 810 811 812 813 814 815 816 817 818 819 820 821 822 823 824 825 826 827 828 829 830 831 832 833 834 835 836 837 838 839 840 841 842 843 844 845 846 847 848 849 850 851 852 853 854 855 856 857 858 859 860 861 862 863 864 865 866 867 868 869 870 871 872 873 874 875 876 877 878 879 880 881 882 883 884 885 886 887 888 889 890 891 892 893 894 895 896 897 898 899 900 901 902 903 904 905 906 907 908 909 910 911 912 913 914 915 916 917 918 919 920 921 922 923 924 925 926 927 928 929 930 931 932 933 934 935 936 937 938 939 940 941 942 943 944 945 946 947 948 949 950 951 952 953 954 955 956 957 958 959 960 961 962 963 964 965 966 967 968 969 970 971 972 973 974 975 976 977 978 979 980 981 982 983 984 985 986 987 988 989 990 991 992 993 994 995 996 997 998 999 1000 1001 1002 1003 1004 1005 1006 1007 1008 1009 1010 1011 1012 1013 1014 1015 1016 1017 1018 1019 1020 1021 1022 1023 1024 1025 1026 1027 1028 1029 1030 1031 1032 1033 1034 1035 1036 1037 1038 1039 1040 1041 1042 1043 1044 1045 1046 1047 1048 1049 1050 1051 1052 1053 1054 1055 1056 1057 1058 1059 1060 1061 1062 1063 1064 1065 1066 1067 1068 1069 1070 1071 1072 1073 1074 1075 1076 1077 1078 1079 1080 1081 1082 1083 1084 1085 1086 1087 1088 1089 1090 1091 1092 1093 1094 1095 1096 1097 1098 1099 1100 1101 1102 1103 1104 1105 1106 1107 1108 1109 1110 1111 1112 1113 1114 1115 1116 1117 1118 1119 1120 1121 1122 1123 1124 1125 1126 1127 1128 1129 1130 1131 1132 1133 1134 1135 1136 1137 1138 1139 1140 1141 1142 1143 1144 1145 1146 1147 1148 1149 1150 1151 1152 1153 1154 1155 1156 1157 1158 1159 1160 1161 1162 1163 1164 1165 1166 1167 1168 1169 1170 1171 1172 1173 1174 1175 1176 1177 1178 1179 1180 1181 1182 1183 1184 1185 1186 1187 1188 1189 1190 1191 1192 1193 1194 1195 1196 1197 1198 1199 1200 1201 1202 1203 1204 1205 1206 1207 1208 1209 1210 1211 1212 1213 1214 1215 1216 1217 1218 1219 1220 1221 1222 1223 1224 1225 1226 1227 1228 1229 1230 1231 1232 1233 1234 1235 1236 1237 1238 1239 1240 1241 1242 1243 1244 1245 1246 1247 1248 1249 1250 1251 1252 1253 1254 1255 1256 1257 1258 1259 1260 1261 1262 1263 1264 1265 1266 1267 1268 1269 1270 1271 1272 1273 1274 1275 1276 1277 1278 1279 1280 1281 1282 1283 1284 1285 1286 1287 1288 1289 1290 1291 1292 1293 1294 1295 1296 1297 1298 1299 1300 1301 1302 1303 1304 1305 1306 1307 1308 1309 1310 1311 1312 1313 1314 1315 1316 1317 1318 1319 1320 1321 1322 1323 1324 1325 1326 1327 1328 1329 1330 1331 1332 1333 1334 1335 1336 1337 1338 1339 1340 1341 1342 1343 1344 1345 1346 1347 1348 1349 1350 1351 1352 1353 1354 1355 1356 1357 1358 1359 1360 1361 1362 1363 1364 1365 1366 1367 1368 1369 1370 1371 1372 1373 1374 1375 1376 1377 1378 1379 1380 1381 1382 1383 1384 1385 1386 1387 1388 1389 1390 1391 1392 1393 1394 1395 1396 1397 1398 1399 1400 1401 1402 1403 1404 1405 1406 1407 1408 1409 1410 1411 1412 1413 1414 1415 1416 1417 1418 1419 1420 1421 1422 1423 1424 1425 1426 1427 1428 1429 1430 1431 1432 1433 1434 1435 1436 1437 1438 1439 1440 1441 1442 1443 1444 1445 1446 1447 1448 1449 1450 1451 1452 1453 1454 1455 1456 1457 1458 1459 1460 1461 1462 1463 1464 1465 1466 1467 1468 1469 1470 1471 1472 1473 1474 1475 1476 1477 1478 1479 1480 1481 1482 1483 1484 1485 1486 1487 1488 1489 1490 1491 1492 1493 1494 1495 1496 1497 1498 1499 1500 1501 1502 1503 1504 1505 1506 1507 1508 1509 1510 1511 1512 1513 1514 1515 1516 1517 1518 1519 1520 1521 1522 1523 1524 1525 1526 1527 1528 1529 1530 1531 1532 1533 1534 1535 1536 1537 1538 1539 1540 1541 1542 1543 1544 1545 1546 1547 1548 1549 1550 1551 1552 1553 1554 1555 1556 1557 1558 1559 1560 1561 1562 1563 1564 1565 1566 1567 1568 1569 1570 1571 1572 1573 1574 1575 1576 1577 1578 1579 1580 1581 1582 1583 1584 1585 1586 1587 1588 1589 1590 1591 1592 1593 1594 1595 1596 1597 1598 1599 1600 1601 1602 1603 1604 1605 1606 1607 1608 1609 1610 1611 1612 1613 1614 1615 1616 1617 1618 1619 1620 1621 1622 1623 1624 1625 1626 1627 1628 1629 1630 1631 1632 1633 1634 1635 1636 1637 1638 1639 1640 1641 1642 1643 1644 1645 1646 1647 1648 1649 1650 1651 1652 1653 1654 1655 1656 1657 1658 1659 1660 1661 1662 1663 1664 1665 1666 1667 1668 1669 1670 1671 1672 1673 1674 1675 1676 1677 1678 1679 1680 1681 1682 1683 1684 1685 1686 1687 1688 1689 1690 1691 1692 1693 1694 1695 1696 1697 1698 1699 1700 1701 1702 1703 1704 1705 1706 1707 1708 1709 1710 1711 1712 1713 1714 1715 1716 1717 1718 1719 1720 1721 1722 1723 1724 1725 1726 1727 1728 1729 1730 1731 1732 1733 1734 1735 1736 1737 1738 1739 1740 1741 1742 1743 1744 1745 1746 1747 1748 1749 1750 1751 1752 1753 1754 1755 1756 1757 1758 1759 1760 1761 1762 1763 1764 1765 1766 1767 1768 1769 1770 1771 1772 1773 1774 1775 1776 1777 1778 1779 1780 1781 1782 1783 1784 1785 1786 1787 1788 1789 1790 1791 1792 1793 1794 1795 1796 1797 1798 1799 1800 1801 1802 1803 1804 1805 1806 1807 1808 1809 1810 1811 1812 1813 1814 1815 1816 1817 1818 1819 1820 1821 1822 1823 1824 1825 1826 1827 1828 1829 1830 1831 1832 1833 1834 1835 1836 1837 1838 1839 1840 1841 1842 1843 1844 1845 1846 1847 1848 1849 1850 1851 1852 1853 1854 1855 1856 1857 1858 1859 1860 1861 1862 1863 1864 1865 1866 1867 1868 1869 1870 1871 1872 1873 1874 1875 1876 1877 1878 1879 1880 1881 1882 1883 1884 1885 1886 1887 1888 1889 1890 1891 1892 1893 1894 1895 1896 1897 1898 1899 1900 1901 1902 1903 1904 1905 1906 1907 1908 1909 1910 1911 1912 1913 1914 1915 1916 1917 1918 1919 1920 1921 1922 1923 1924 1925 1926 1927 1928 1929 1930 1931 1932 1933 1934 1935 1936 1937 1938 1939 1940 1941 1942 1943 1944 1945 1946 1947 1948 1949 1950 1951 1952 1953 1954 1955 1956 1957 1958 1959 1960 1961 1962 1963 1964 1965 1966 1967 1968 1969 1970 1971 1972 1973 1974 1975 1976 1977 1978 1979 1980 1981 1982 1983 1984 1985 1986 1987 1988 1989 1990 1991 1992 1993 1994 1995 1996 1997 1998 1999 2000 2001 2002 2003 2004 2005 2006 2007 2008 2009 2010 2011 2012 2013 2014 2015 2016 2017 2018 2019 2020 2021 2022 2023 2024 2025 2026 2027 2028 2029 2030 2031 2032 2033 2034 2035 2036 2037 2038 2039 2040 2041 2042 2043 2044 2045 2046 2047 2048 2049 2050 2051 2052 2053 2054 2055 2056 2057 2058 2059 2060 2061 2062 2063 2064 2065 2066 2067 2068 2069 2070 2071 2072 2073 2074 2075 2076 2077 2078 2079 2080 2081 2082 2083 2084 2085 2086 2087 2088 2089 2090 2091 2092 2093 2094 2095 2096 2097 2098 2099 2100 2101 2102 2103 2104 2105 2106 2107 2108 2109 2110 2111 2112 2113 2114 2115 2116 2117 2118 2119 2120 2121 2122 2123 2124 2125 2126 2127 2128 2129 2130 2131 2132 2133 2134 2135 2136 2137 2138 2139 2140 2141 2142 2143 2144 2145 2146 2147 2148 2149 2150 2151 2152 2153 2154 2155 2156 2157 2158 2159 2160 2161 2162 2163 2164 2165 2166 2167 2168 2169 2170 2171 2172 2173 2174 2175 2176 2177 2178 2179 2180 2181 2182 2183 2184 2185 2186 2187 2188 2189 2190 2191 2192 2193 2194 2195 2196 2197 2198 2199 2200 
    </DataArray>
    <DataArray Name="OriginalID" type="Int32" Format="ascii">
    3 39 75 147 111 183 219 327 255 291 5 4 6 7 0 2 1 453 41 77 40 76 113 112 149 148 78 43 42 79 151 114 150 115 221 185 184 220 328 292 256 329 257 293 223 222 186 187 330 259 331 294 258 295 38 36 72 73 74 37 146 144 108 110 145 109 1942 390 1209 2100 992 1074 2050 1034 299 1935 218 217 216 180 182 181 254 324 252 288 325 289 253 326 290 892 1303 966 1281 923 788 1078 1202 1395 399 363 471 435 543 507 579 651 615 723 687 795 831 759 903 867 939 975 364 400 401 365 473 472 436 437 402 403 367 366 438 475 474 439 508 509 581 580 544 545 652 653 617 616 511 583 582 510 546 547 619 618 655 654 362 361 396 360 397 398 469 432 434 468 433 470 964 956 1408 1196 1292 928 961 1224 999 1109 505 504 542 576 540 541 578 577 506 650 612 648 649 614 613 1294 963 1228 954 925 998 1354 960 1204 689 688 725 724 796 761 833 760 797 832 727 726 690 691 762 835 799 763 798 834 869 905 904 868 940 977 941 976 907 870 906 871 979 978 943 942 721 685 720 684 686 722 794 758 792 756 828 793 830 829 757 927 888 1486 1509 1365 924 921 1192 1214 1038 902 900 865 864 866 901 972 937 936 974 938 973 1497 1251 1149 1270 895 1148 1150 1275 929 1464 2038 268 8 2184 267 1928 19 246 15 492 188 318 1932 117 1962 458 137 389 105 2171 2024 1775 266 237 194 9 2007 273 2116 251 456 1310 320 244 448 452 1929 1261 200 283 238 275 214 2106 1854 35 2057 229 305 57 307 353 274 203 14 116 2027 124 1753 236 29 2073 206 228 64 230 45 2166 321 44 153 352 118 139 282 1918 2074 1821 271 24 90 59 87 233 49 195 16 285 1902 138 82 69 428 2090 494 431 317 338 312 355 302 89 126 86 67 134 1905 346 348 98 128 10 102 1971 130 199 92 314 104 94 70 54 133 1861 17 58 235 201 83 179 160 96 18 303 155 21 119 46 193 281 1867 385 143 269 11 357 13 159 2101 1722 359 1675 63 1995 2259 62 1669 337 322 1910 32 177 122 197 91 123 23 53 52 136 176 31 162 158 169 208 47 12 60 61 1639 1297 1330 412 1041 1195 1498 1430 1355 1651 1236 33 171 826 2005 1953 207 2060 300 1339 1940 1284 1321 856 1420 1507 1419 934 1718 1362 1453 1334 1300 1466 898 1458 1552 1606 1530 1399 1423 1403 1529 2058 234 1944 447 1510 1837 1240 1377 1312 154 88 2104 2150 1793 248 1307 81 198 451 264 1985 1367 1619 1444 1463 1470 1253 1358 1282 1429 1412 1405 1450 1963 1991 163 261 332 1438 1335 1439 1729 1452 1364 1333 1474 1455 1239 1522 1323 1454 1249 1447 1421 1388 1418 1409 1617 1531 1488 1446 1482 1518 1363 1400 1007 1366 1348 1322 1476 1186 1295 1424 1378 1319 1432 1462 1043 1915 1573 1057 1286 1092 1415 1402 1819 1392 1471 1505 1560 1422 1394 1414 1410 1356 1830 1673 1528 1499 1425 1407 1393 1449 1389 1448 1569 1337 1457 1443 1343 1413 1345 2253 877 1090 1728 1344 1128 1130 1621 1629 1631 1549 1021 1126 1369 2213 946 1264 121 277 174 232 156 313 204 239 164 210 2159 48 131 85 1930 101 167 2170 97 202 135 394 1435 392 178 1904 1382 409 1296 1381 388 372 1368 1387 2059 1433 1539 1304 1427 375 205 2133 196 26 55 20 2091 2103 106 50 51 125 2023 166 2089 1994 170 2157 2135 1965 2137 1954 213 1966 298 423 224 2119 1937 1417 1538 1411 1517 1843 2145 152 227 100 262 2054 414 1404 1993 391 1542 1357 1473 1472 1670 1610 1548 1575 1643 1545 1426 1494 1527 1504 1524 1708 1574 1642 1501 1513 1346 1706 1526 1709 1760 1314 1541 1514 1370 984 1511 1717 1162 1624 1563 1491 1500 1547 1741 1550 1479 1533 1436 1851 1707 1490 1557 1503 1650 1661 1626 1360 1683 343 1609 1325 225 1416 1437 1391 1477 376 1632 1596 1599 1484 1616 1795 1568 2277 1672 1579 1534 2276 1544 1811 1633 1565 1481 1640 1659 1556 1613 1692 1655 1615 1047 1011 1155 1083 1119 1013 1012 1048 1049 1085 1157 1156 1121 1084 1120 1014 1015 1050 1051 1158 1159 1122 1087 1086 1123 1044 1008 1045 1010 1009 1046 1152 1116 1080 1082 1153 1081 1154 1118 1117 886 1595 1485 958 1171 1283 897 2264 791 912 1055 1744 1431 1383 1798 876 2255 947 1768 1160 839 1164 1838 911 1885 1135 1736 1098 948 1058 1174 1091 1951 1939 1056 1922 874 1053 1176 1132 2245 1088 1020 1054 1019 2272 1093 1165 1095 1096 1094 1168 983 1170 986 1125 1543 1535 1163 2138 1888 1127 1525 2153 1950 1658 2275 1136 2053 1646 1686 1676 1756 1061 1653 1523 1600 1570 1605 985 1665 1059 1581 1133 2274 1652 1681 1680 1604 1598 1576 1803 1578 1590 1594 1779 1782 1129 1052 1769 2273 1679 1572 1666 1668 1097 1645 1695 1743 1691 2256 1715 1828 2221 1789 1914 1733 1671 1677 2268 1720 1841 1761 2258 1842 1682 2254 1846 2251 2237 2233 2240 2232 2197 1773 2243 2244 2209 2235 2236 2231 2225 2239 2192 2121 2212 2200 2201 2219 1792 1855 1799 2187 2211 2165 1018 1169 2146 1138 2173 2220 2204 982 875 2154 2162 1166 2175 1023 1875 1883 988 1874 1886 2183 1060 2163 2088 1903 2120 2143 1986 2178 1137 2086 944 949 1131 908 693 2117 1884 980 2144 1923 1948 2051 1987 1100 2045 84 1901 1690 527 454 336 297 485 2269 461 1710 491 270 279 189 34 411 2046 1739 393 276 311 1745 2260 483 309 1771 306 132 1998 1591 354 99 56 129 25 1870 265 1958 1806 191 308 66 247 387 1977 68 249 215 467 489 486 1758 296 2265 495 1812 1731 455 488 430 462 429 465 1943 493 459 65 1829 1723 1660 2056 1555 1924 374 339 323 347 1635 1844 1820 1664 1805 1687 284 2203 27 120 1990 172 231 140 450 240 1871 95 2125 212 173 71 2136 241 2002 142 1992 377 1868 415 141 487 1890 22 1406 1506 424 422 413 165 380 379 80 263 1483 457 1873 1787 103 419 421 2164 1933 382 345 2158 395 416 381 93 301 349 2248 286 1757 226 351 1705 342 28 373 211 386 161 1964 1921 1608 418 341 30 417 1721 1766 315 1732 1746 358 1780 356 316 340 2025 1461 1647 1719 1906 1390 1587 1428 1468 1492 1512 425 1478 378 1900 1694 1493 1607 1628 1536 1597 1751 1630 1778 1553 1532 1546 1603 1611 1588 1601 192 1586 1585 1623 344 1641 310 1582 1577 1648 1823 1580 384 449 190 1749 1872 1459 1551 127 1831 350 1625 460 420 2270 383 1737 2263 1656 319 1684 1727 1614 304 1654 1752 1839 2261 1847 1797 1689 1788 1748 1583 2075 1714 2230 1698 1725 1770 1762 1713 1703 1644 1627 1593 1567 1845 1638 1688 1592 1636 1589 1824 1697 2257 1701 1784 1716 1674 1637 1810 1566 1649 1700 1702 1848 1657 1561 1767 1850 1612 1667 1740 1699 1804 1712 1678 1825 1735 1796 1734 1602 1791 2271 2222 1818 1781 1755 1822 2247 250 1759 1957 1765 1742 1704 2266 1836 280 175 107 1747 2262 2199 2250 2216 1726 1763 1809 2267 1730 1750 2228 1790 1832 1764 272 245 2227 496 1785 1783 287 1711 2241 1835 1834 1724 2238 1833 2252 1813 2249 2246 1808 2191 1857 1774 1853 1816 2242 1814 2190 2182 1826 1777 1840 2234 2189 2226 2210 1802 2207 1815 2208 2174 278 1800 2215 2188 2147 1794 2180 531 1801 2214 1693 1754 1849 1947 1786 157 2070 1807 2029 243 1776 2205 209 1927 2026 466 2229 463 1899 2193 426 1979 168 2000 2206 2082 1772 2177 242 334 1976 427 410 2142 1975 2055 1917 2155 2161 2224 2196 2156 2169 2217 2124 1827 2098 2172 2202 2223 2141 2160 2181 2149 2128 2148 1856 2085 2152 2109 2198 2132 2112 2194 2037 2084 2020 1025 2111 2072 2068 2083 2081 2130 1978 2016 1945 1988 2096 2218 2179 2097 2139 2028 2126 2185 2114 2069 2129 2099 1973 1898 529 500 2113 2131 1982 2010 563 335 1996 2014 2047 1919 2035 1961 2006 1880 1865 2021 371 2032 501 408 2044 2048 1916 528 1879 523 503 1852 2186 1089 2004 2123 2127 2195 2168 2134 2095 1968 2015 1960 1926 1124 2022 2043 1909 2064 1999 2151 2041 2107 2176 2105 2118 1173 1167 2071 2062 1099 1949 2066 2167 2093 2030 2108 2067 1134 2102 2110 521 260 1959 1896 370 1869 1931 368 1876 1955 2031 445 536 446 369 533 498 537 1974 464 497 561 1981 443 2040 2009 548 1946 2140 2094 2122 2065 1920 1897 1862 570 407 481 526 490 444 524 2052 1161 1936 765 2018 656 2078 2079 2042 558 2034 1172 2017 2077 800 1983 766 1858 910 1989 2033 571 621 1912 639 692 597 562 1967 872 731 801 841 913 945 1016 1938 1913 694 767 1934 1882 840 1892 951 987 1102 1063 950 878 842 989 914 915 1022 843 1017 953 804 1331 1024 1140 1105 1106 1197 1219 1361 1139 882 1326 1216 1386 1185 1375 1226 1338 1242 919 932 584 2049 442 441 2076 557 575 635 482 560 1860 2001 2003 2039 1980 2063 2013 1911 1887 522 2080 519 405 611 555 520 607 535 1878 539 1972 643 1908 406 530 676 1895 566 610 1941 564 599 534 1970 2087 2092 1907 1969 2011 1952 2036 333 2115 499 532 1894 525 1956 2012 2008 2061 1984 2019 565 484 559 598 605 596 513 637 556 568 636 600 1893 502 1997 1925 1863 476 516 1866 479 538 1891 585 1175 659 729 1859 728 640 645 1864 671 480 675 550 440 1877 608 620 595 730 626 768 837 836 802 805 873 803 909 981 589 554 660 657 627 696 624 732 593 623 572 573 404 1889 658 569 477 1881 518 517 574 638 515 602 601 604 549 512 642 609 551 764 586 514 622 587 632 588 633 668 478 634 606 603 553 567 552 677 592 670 707 1104 769 770 735 808 1200 1178 1177 1062 663 697 838 695 661 806 990 1141 733 1182 1353 1265 1340 926 1003 969 1540 844 879 1033 1142 774 1103 1189 1373 1243 1068 1199 968 1259 631 591 630 662 594 666 590 664 625 734 699 708 667 629 669 672 705 698 706 704 736 773 700 702 737 772 1179 771 845 807 710 741 628 709 742 743 703 745 673 1194 1037 1144 1277 1299 1000 1288 1341 1035 1067 1030 1210 1143 1032 646 1349 1231 683 739 716 701 779 744 714 647 715 641 778 847 1269 1320 711 1254 746 1311 738 747 1221 665 713 674 644 1147 894 1256 1347 994 1475 1190 1066 891 740 775 750 1108 1101 811 1309 812 809 1070 678 1107 810 1234 1496 1291 880 1329 1069 952 917 1255 813 748 1287 815 1289 1276 862 814 931 776 782 1028 752 1278 777 816 848 1318 1508 1040 1065 849 881 918 780 1272 1223 1376 1252 787 820 846 916 1232 883 1031 1290 1217 854 858 682 753 967 997 1298 819 1250 1257 1233 852 818 786 863 861 1079 1244 1205 1001 1245 1114 933 1039 1385 965 1193 1151 991 1301 1317 1258 1207 781 1266 1036 1441 789 1213 855 1076 850 680 1396 1002 1220 1006 681 853 823 821 824 1342 1110 1487 1203 751 1027 1238 859 1198 1180 1146 930 1064 719 1218 1042 1191 1562 1187 935 1206 1247 1208 1248 996 857 1029 993 1384 885 1004 1111 749 1225 717 1267 822 1112 1263 1293 1237 1026 1184 1183 890 1113 754 970 1246 1115 893 718 971 1181 1073 1352 920 1077 1215 1280 860 1235 1005 1071 1260 1212 896 1374 884 1227 1241 1201 889 1211 887 785 712 817 1738 1072 679 783 1262 955 851 1188 784 1279 