<?xml version="1.0"?>
<VTKFile type="PolyData" version="0.1" byte_order="LittleEndian">
 <PolyData>
  <Piece Name ="WaterBlock" NumberOfPoints="1924" NumberOfVerts="1924">
   <Points>
    <DataArray Name="Position" type="Float32"  NumberOfComponents="3" Format="ascii">
    0.01 0.0580088 0 0.01 0.0380088 0 0.01 0.0180088 0 0.01 0.0780088 0 0.01 0.0980088 0 0.01 0.138009 0 0.01 0.118009 0 0.00911396 0.176738 0 0.01 0.158009 0 0.03 0.0180088 0 0.05 0.0380088 0 0.05 0.0580088 0 0.03 0.0580088 0 0.03 0.0380088 0 0.05 0.0180088 0 0.07 0.0580088 0 0.07 0.0180088 0 0.09 0.0580088 0 0.07 0.0380088 0 0.09 0.0380088 0 0.09 0.0180088 0 0.05 0.0980088 0 0.05 0.0780088 0 0.03 0.0780088 0 0.03 0.0980088 0 0.07 0.0980088 0 0.09 0.0780088 0 0.09 0.0980088 0 0.07 0.0780088 0 0.13 0.0180088 0 0.11 0.0180088 0 0.11 0.0380088 0 0.11 0.0580088 0 0.13 0.0380088 0 0.13 0.0580088 0 0.15 0.0580088 0 0.15 0.0380088 0 0.17 0.0580088 0 0.19 0.0380088 0 0.17 0.0380088 0 0.19 0.0180088 0 0.17 0.0180088 0 0.15 0.0180088 0 0.19 0.0580088 0 0.13 0.0780088 0 0.13 0.0980088 0 0.11 0.0780088 0 0.11 0.0980088 0 0.15 0.0980088 0 0.19 0.0980088 0 0.17 0.0980088 0 0.15 0.0780088 0 0.19 0.0780088 0 0.17 0.0780088 0 0.03 0.118009 0 0.05 0.118009 0 0.05 0.138009 0 0.03 0.138009 0 0.07 0.138009 0 0.07 0.118009 0 0.09 0.118009 0 0.09 0.138009 0 0.03 0.158009 0 0.0469868 0.178966 0 0.05 0.158009 0 0.0299062 0.178187 0 0.0860699 0.179765 0 0.07 0.158009 0 0.09 0.158009 0 0.0663139 0.17596 0 0.103509 0.177107 0 0.11 0.138009 0 0.13 0.118009 0 0.13 0.138009 0 0.11 0.118009 0 0.19 0.138009 0 0.17 0.118009 0 0.15 0.118009 0 0.15 0.138009 0 0.19 0.118009 0 0.17 0.138009 0 0.143004 0.177561 0 0.11 0.158009 0 0.13 0.158009 0 0.123562 0.178025 0 0.15 0.158009 0 0.17 0.158009 0 0.163339 0.177011 0 0.182681 0.178302 0 0.19 0.158009 0 0.23 0.0380088 0 0.21 0.0380088 0 0.21 0.0180088 0 0.23 0.0580088 0 0.21 0.0580088 0 0.23 0.0180088 0 0.27 0.0180088 0 0.27 0.0380088 0 0.25 0.0380088 0 0.25 0.0580088 0 0.27 0.0580088 0 0.25 0.0180088 0 0.21 0.0780088 0 0.21 0.0980088 0 0.23 0.0980088 0 0.23 0.0780088 0 0.25 0.0980088 0 0.27 0.0780088 0 0.27 0.0980088 0 0.25 0.0780088 0 0.33 0.0380088 0 0.29 0.0380088 0 0.31 0.0380088 0 0.29 0.0180088 0 0.31 0.0180088 0 0.33 0.0180088 0 0.33 0.0580088 0 0.29 0.0580088 0 0.31 0.0580088 0 0.37 0.0380088 0 0.37 0.0580088 0 0.35 0.0180088 0 0.35 0.0580088 0 0.35 0.0380088 0 0.37 0.0180088 0 0.33 0.0780088 0 0.29 0.0980088 0 0.29 0.0780088 0 0.31 0.0980088 0 0.33 0.0980088 0 0.31 0.0780088 0 0.35 0.0980088 0 0.37 0.0780088 0 0.37 0.0980088 0 0.35 0.0780088 0 0.21 0.138009 0 0.23 0.138009 0 0.23 0.118009 0 0.21 0.118009 0 0.27 0.118009 0 0.25 0.138009 0 0.25 0.118009 0 0.27 0.138009 0 0.221499 0.177353 0 0.202401 0.177355 0 0.23 0.158009 0 0.21 0.158009 0 0.241723 0.196435 0 0.242848 0.17753 0 0.262278 0.176891 0 0.282706 0.177809 0 0.25 0.158009 0 0.27 0.158009 0 0.29 0.118009 0 0.31 0.118009 0 0.31 0.138009 0 0.29 0.138009 0 0.33 0.138009 0 0.33 0.118009 0 0.37 0.138009 0 0.35 0.138009 0 0.35 0.118009 0 0.37 0.118009 0 0.324318 0.195676 0 0.302328 0.177102 0 0.300849 0.19627 0 0.31 0.158009 0 0.33 0.158009 0 0.29 0.158009 0 0.323401 0.176532 0 0.35 0.158009 0 0.342676 0.179877 0 0.37 0.158009 0 0.360093 0.176514 0 0.39 0.0580088 0 0.39 0.0180088 0 0.41 0.0580088 0 0.39 0.0380088 0 0.41 0.0380088 0 0.41 0.0180088 0 0.47 0.0580088 0 0.47 0.0380088 0 0.45 0.0580088 0 0.43 0.0580088 0 0.47 0.0180088 0 0.45 0.0380088 0 0.43 0.0180088 0 0.45 0.0180088 0 0.43 0.0380088 0 0.39 0.0980088 0 0.41 0.0780088 0 0.41 0.0980088 0 0.39 0.0780088 0 0.45 0.0780088 0 0.47 0.0780088 0 0.43 0.0980088 0 0.45 0.0980088 0 0.43 0.0780088 0 0.47 0.0980088 0 0.49 0.0580088 0 0.49 0.0180088 0 0.51 0.0380088 0 0.51 0.0580088 0 0.49 0.0380088 0 0.51 0.0180088 0 0.53 0.0380088 0 0.55 0.0180088 0 0.53 0.0580088 0 0.55 0.0580088 0 0.55 0.0380088 0 0.53 0.0180088 0 0.49 0.0980088 0 0.49 0.0780088 0 0.51 0.0980088 0 0.51 0.0780088 0 0.55 0.0980088 0 0.55 0.0780088 0 0.53 0.0780088 0 0.53 0.0980088 0 0.39 0.138009 0 0.41 0.138009 0 0.41 0.118009 0 0.39 0.118009 0 0.45 0.118009 0 0.43 0.118009 0 0.43 0.138009 0 0.47 0.138009 0 0.47 0.118009 0 0.45 0.138009 0 0.39 0.158009 0 0.41 0.158009 0 0.421488 0.178821 0 0.381332 0.177212 0 0.399543 0.195639 0 0.401629 0.176868 0 0.442638 0.174834 0 0.428819 0.194179 0 0.45 0.158009 0 0.43 0.158009 0 0.460154 0.183139 0 0.47 0.158009 0 0.51 0.118009 0 0.49 0.118009 0 0.51 0.138009 0 0.49 0.138009 0 0.53 0.118009 0 0.53 0.138009 0 0.55 0.118009 0 0.55 0.138009 0 0.49 0.158009 0 0.488712 0.195924 0 0.515828 0.177504 0 0.477454 0.175746 0 0.51 0.158009 0 0.497987 0.178721 0 0.536336 0.177488 0 0.53 0.158009 0 0.55 0.158009 0 0.556914 0.176639 0 0.545998 0.195538 0 0.00935925 0.214112 0 0.00810134 0.268428 0 0.00755936 0.242681 0 0.0105896 0.316684 0 0.00969745 0.297182 0 0.0112671 0.351555 0 0.0461143 0.208933 0 0.0310048 0.200127 0 0.0361359 0.225896 0 0.0197502 0.227495 0 0.0133509 0.196123 0 0.0593286 0.196886 0 0.0780175 0.200237 0 0.067827 0.217712 0 0.061105 0.231821 0 0.0980918 0.198667 0 0.0866376 0.233795 0 0.0935621 0.217067 0 0.0371678 0.261484 0 0.0432226 0.242535 0 0.0201985 0.283338 0 0.0210507 0.256004 0 0.0504254 0.273564 0 0.0361852 0.287777 0 0.0702275 0.269832 0 0.0609006 0.251475 0 0.0816508 0.250856 0 0.0953544 0.262822 0 0.0855781 0.28224 0 0.119066 0.198293 0 0.114142 0.217382 0 0.125799 0.236625 0 0.138983 0.196747 0 0.143818 0.239064 0 0.13386 0.216844 0 0.10483 0.238711 0 0.183116 0.237612 0 0.159641 0.19811 0 0.179921 0.197237 0 0.164192 0.237729 0 0.153417 0.217779 0 0.19348 0.216795 0 0.171685 0.216446 0 0.10523 0.279473 0 0.149311 0.275966 0 0.115404 0.255271 0 0.136538 0.2586 0 0.123878 0.273345 0 0.190616 0.279188 0 0.180137 0.257351 0 0.158742 0.256559 0 0.168914 0.275012 0 0.0365605 0.330058 0 0.0462131 0.304172 0 0.0298241 0.311882 0 0.0550805 0.326947 0 0.0831472 0.301719 0 0.0636535 0.289749 0 0.077854 0.326938 0 0.101539 0.303646 0 0.0950665 0.324478 0 0.0655162 0.310277 0 0.0329186 0.373841 0 0.0472777 0.361399 0 0.0132863 0.3339 0 0.0168577 0.367498 0 0.0333 0.347833 0 0.0587187 0.345959 0 0.0948727 0.346886 0 0.0764696 0.3485 0 0.0854361 0.368862 0 0.0663176 0.370017 0 0.114546 0.321631 0 0.136789 0.309523 0 0.117848 0.297588 0 0.136162 0.327099 0 0.135974 0.290541 0 0.182414 0.330963 0 0.162545 0.329426 0 0.179047 0.294354 0 0.159039 0.295339 0 0.157522 0.312907 0 0.183237 0.312795 0 0.115054 0.339176 0 0.143268 0.364846 0 0.106511 0.361613 0 0.144506 0.342574 0 0.12251 0.375919 0 0.127178 0.354069 0 0.162008 0.37011 0 0.163438 0.349851 0 0.180291 0.375194 0 0.182137 0.353848 0 0.0102904 0.402988 0 0.00957368 0.384977 0 0.00891712 0.424783 0 0.00835261 0.444704 0 0.00748192 0.474441 0 0.00769828 0.499947 0 0.00809132 0.563193 0 0.00999084 0.538388 0 0.0288286 0.420431 0 0.0475254 0.419503 0 0.0425697 0.39073 0 0.0299477 0.401669 0 0.0778326 0.403326 0 0.0783961 0.425777 0 0.0603801 0.406647 0 0.08635 0.38848 0 0.0604013 0.385653 0 0.0958276 0.418705 0 0.0454099 0.441084 0 0.0270144 0.443035 0 0.0425781 0.460686 0 0.0210139 0.463555 0 0.0614428 0.465305 0 0.0916298 0.443639 0 0.0631652 0.433893 0 0.0731538 0.451327 0 0.0878246 0.465148 0 0.140495 0.385145 0 0.148083 0.425586 0 0.105128 0.382526 0 0.12314 0.399411 0 0.104879 0.404104 0 0.14444 0.404849 0 0.12599 0.418305 0 0.160036 0.390717 0 0.179555 0.397002 0 0.164316 0.412684 0 0.184592 0.416703 0 0.130576 0.437804 0 0.110648 0.431328 0 0.145481 0.466244 0 0.108187 0.452707 0 0.126638 0.456448 0 0.150567 0.447131 0 0.18667 0.437658 0 0.191575 0.457964 0 0.167315 0.434099 0 0.168206 0.455137 0 0.0440821 0.508102 0 0.052995 0.49372 0 0.0228921 0.487417 0 0.0260257 0.508725 0 0.0399913 0.478961 0 0.0795475 0.500514 0 0.0681811 0.513846 0 0.0892742 0.483236 0 0.0995892 0.503061 0 0.0670985 0.48221 0 0.0130944 0.522869 0 0.0458231 0.526716 0 0.0319472 0.536611 0 0.0222041 0.558613 0 0.0423917 0.552638 0 0.079488 0.550592 0 0.089861 0.52291 0 0.0677108 0.530593 0 0.0607192 0.548051 0 0.0960399 0.538876 0 0.100842 0.558918 0 0.126486 0.477426 0 0.130314 0.510929 0 0.140274 0.493833 0 0.116212 0.494437 0 0.107935 0.474632 0 0.175285 0.472145 0 0.156143 0.479818 0 0.176905 0.491465 0 0.171716 0.514147 0 0.156669 0.501759 0 0.192483 0.498665 0 0.110835 0.519297 0 0.130636 0.530239 0 0.149286 0.521443 0 0.116166 0.542096 0 0.133875 0.554165 0 0.14997 0.543945 0 0.173128 0.554195 0 0.154074 0.563452 0 0.188879 0.519931 0 0.166764 0.534225 0 0.187417 0.540493 0 0.202015 0.235829 0 0.214057 0.216729 0 0.200457 0.199231 0 0.222397 0.236892 0 0.220736 0.19659 0 0.234903 0.214577 0 0.240687 0.233823 0 0.255625 0.217438 0 0.260222 0.239979 0 0.273843 0.221868 0 0.279842 0.197991 0 0.262277 0.198428 0 0.219301 0.255788 0 0.209458 0.275555 0 0.241644 0.254927 0 0.231735 0.27244 0 0.199646 0.2569 0 0.27908 0.242971 0 0.287408 0.260498 0 0.250457 0.276878 0 0.261607 0.260173 0 0.272212 0.275963 0 0.31552 0.234218 0 0.313088 0.212093 0 0.331054 0.221463 0 0.292293 0.215513 0 0.296267 0.234525 0 0.378702 0.19695 0 0.362816 0.237633 0 0.375211 0.216665 0 0.360716 0.198742 0 0.340975 0.237262 0 0.341532 0.202912 0 0.354716 0.219323 0 0.327849 0.252321 0 0.333966 0.276371 0 0.297122 0.274438 0 0.307298 0.253593 0 0.317555 0.272816 0 0.355115 0.275658 0 0.347078 0.25741 0 0.367331 0.257268 0 0.378952 0.273384 0 0.201824 0.316238 0 0.202721 0.296635 0 0.216351 0.330677 0 0.240701 0.298211 0 0.2235 0.312416 0 0.222829 0.291733 0 0.269719 0.310865 0 0.281861 0.292991 0 0.280447 0.331797 0 0.242938 0.317637 0 0.259649 0.295964 0 0.259088 0.32901 0 0.19998 0.363019 0 0.238317 0.372043 0 0.21998 0.348892 0 0.220066 0.36816 0 0.239167 0.336926 0 0.199078 0.341432 0 0.284287 0.365608 0 0.263122 0.364486 0 0.2659 0.346643 0 0.243357 0.353531 0 0.301134 0.330704 0 0.303177 0.294268 0 0.289625 0.311383 0 0.312563 0.312416 0 0.322523 0.295483 0 0.32202 0.332325 0 0.333942 0.317974 0 0.35383 0.316771 0 0.342497 0.297698 0 0.371437 0.314961 0 0.359876 0.293174 0 0.313729 0.350484 0 0.3260
[...]
   <PointData  Vectors="vector">
    <DataArray Name="SortedParticle_ID" type="Int32" Format="ascii">
    0 1 2 3 4 5 6 7 8 9 10 11 12 13 14 15 16 17 18 19 20 21 22 23 24 25 26 27 28 29 30 31 32 33 34 35 36 37 38 39 40 41 42 43 44 45 46 47 48 49 50 51 52 53 54 55 56 57 58 59 60 61 62 63 64 65 66 67 68 69 70 71 72 73 74 75 76 77 78 79 80 81 82 83 84 85 86 87 88 89 90 91 92 93 94 95 96 97 98 99 100 101 102 103 104 105 106 107 108 109 110 111 112 113 114 115 116 117 118 119 120 121 122 123 124 125 126 127 128 129 130 131 132 133 134 135 136 137 138 139 140 141 142 143 144 145 146 147 148 149 150 151 152 153 154 155 156 157 158 159 160 161 162 163 164 165 166 167 168 169 170 171 172 173 174 175 176 177 178 179 180 181 182 183 184 185 186 187 188 189 190 191 192 193 194 195 196 197 198 199 200 201 202 203 204 205 206 207 208 209 210 211 212 213 214 215 216 217 218 219 220 221 222 223 224 225 226 227 228 229 230 231 232 233 234 235 236 237 238 239 240 241 242 243 244 245 246 247 248 249 250 251 252 253 254 255 256 257 258 259 260 261 262 263 264 265 266 267 268 269 270 271 272 273 274 275 276 277 278 279 280 281 282 283 284 285 286 287 288 289 290 291 292 293 294 295 296 297 298 299 300 301 302 303 304 305 306 307 308 309 310 311 312 313 314 315 316 317 318 319 320 321 322 323 324 325 326 327 328 329 330 331 332 333 334 335 336 337 338 339 340 341 342 343 344 345 346 347 348 349 350 351 352 353 354 355 356 357 358 359 360 361 362 363 364 365 366 367 368 369 370 371 372 373 374 375 376 377 378 379 380 381 382 383 384 385 386 387 388 389 390 391 392 393 394 395 396 397 398 399 400 401 402 403 404 405 406 407 408 409 410 411 412 413 414 415 416 417 418 419 420 421 422 423 424 425 426 427 428 429 430 431 432 433 434 435 436 437 438 439 440 441 442 443 444 445 446 447 448 449 450 451 452 453 454 455 456 457 458 459 460 461 462 463 464 465 466 467 468 469 470 471 472 473 474 475 476 477 478 479 480 481 482 483 484 485 486 487 488 489 490 491 492 493 494 495 496 497 498 499 500 501 502 503 504 505 506 507 508 509 510 511 512 513 514 515 516 517 518 519 520 521 522 523 524 525 526 527 528 529 530 531 532 533 534 535 536 537 538 539 540 541 542 543 544 545 546 547 548 549 550 551 552 553 554 555 556 557 558 559 560 561 562 563 564 565 566 567 568 569 570 571 572 573 574 575 576 577 578 579 580 581 582 583 584 585 586 587 588 589 590 591 592 593 594 595 596 597 598 599 600 601 602 603 604 605 606 607 608 609 610 611 612 613 614 615 616 617 618 619 620 621 622 623 624 625 626 627 628 629 630 631 632 633 634 635 636 637 638 639 640 641 642 643 644 645 646 647 648 649 650 651 652 653 654 655 656 657 658 659 660 661 662 663 664 665 666 667 668 669 670 671 672 673 674 675 676 677 678 679 680 681 682 683 684 685 686 687 688 689 690 691 692 693 694 695 696 697 698 699 700 701 702 703 704 705 706 707 708 709 710 711 712 713 714 715 716 717 718 719 720 721 722 723 724 725 726 727 728 729 730 731 732 733 734 735 736 737 738 739 740 741 742 743 744 745 746 747 748 749 750 751 752 753 754 755 756 757 758 759 760 761 762 763 764 765 766 767 768 769 770 771 772 773 774 775 776 777 778 779 780 781 782 783 784 785 786 787 788 789 790 791 792 793 794 795 796 797 798 799 800 801 802 803 804 805 806 807 808 809 810 811 812 813 814 815 816 817 818 819 820 821 822 823 824 825 826 827 828 829 830 831 832 833 834 835 836 837 838 839 840 841 842 843 844 845 846 847 848 849 850 851 852 853 854 855 856 857 858 859 860 861 862 863 864 865 866 867 868 869 870 871 872 873 874 875 876 877 878 879 880 881 882 883 884 885 886 887 888 889 890 891 892 893 894 895 896 897 898 899 900 901 902 903 904 905 906 907 908 909 910 911 912 913 914 915 916 917 918 919 920 921 922 923 924 925 926 927 928 929 930 931 932 933 934 935 936 937 938 939 940 941 942 943 944 945 946 947 948 949 950 951 952 953 954 955 956 957 958 959 960 961 962 963 964 965 966 967 968 969 970 971 972 973 974 975 976 977 978 979 980 981 982 983 984 985 986 987 988 989 990 991 992 993 994 995 996 997 998 999 1000 1001 1002 1003 1004 1005 1006 1007 1008 1009 1010 1011 1012 1013 1014 1015 1016 1017 1018 1019 1020 1021 1022 1023 1024 1025 1026 1027 1028 1029 1030 1031 1032 1033 1034 1035 1036 1037 1038 1039 1040 1041 1042 1043 1044 1045 1046 1047 1048 1049 1050 1051 1052 1053 1054 1055 1056 1057 1058 1059 1060 1061 1062 1063 1064 1065 1066 1067 1068 1069 1070 1071 1072 1073 1074 1075 1076 1077 1078 1079 1080 1081 1082 1083 1084 1085 1086 1087 1088 1089 1090 1091 1092 1093 1094 1095 1096 1097 1098 1099 1100 1101 1102 1103 1104 1105 1106 1107 1108 1109 1110 1111 1112 1113 1114 1115 1116 1117 1118 1119 1120 1121 1122 1123 1124 1125 1126 1127 1128 1129 1130 1131 1132 1133 1134 1135 1136 1137 1138 1139 1140 1141 1142 1143 1144 1145 1146 1147 1148 1149 1150 1151 1152 1153 1154 1155 1156 1157 1158 1159 1160 1161 1162 1163 1164 1165 1166 1167 1168 1169 1170 1171 1172 1173 1174 1175 1176 1177 1178 1179 1180 1181 1182 1183 1184 1185 1186 1187 1188 1189 1190 1191 1192 1193 1194 1195 1196 1197 1198 1199 1200 1201 1202 1203 1204 1205 1206 1207 1208 1209 1210 1211 1212 1213 1214 1215 1216 1217 1218 1219 1220 1221 1222 1223 1224 1225 1226 1227 1228 1229 1230 1231 1232 1233 1234 1235 1236 1237 1238 1239 1240 1241 1242 1243 1244 1245 1246 1247 1248 1249 1250 1251 1252 1253 1254 1255 1256 1257 1258 1259 1260 1261 1262 1263 1264 1265 1266 1267 1268 1269 1270 1271 1272 1273 1274 1275 1276 1277 1278 1279 1280 1281 1282 1283 1284 1285 1286 1287 1288 1289 1290 1291 1292 1293 1294 1295 1296 1297 1298 1299 1300 1301 1302 1303 1304 1305 1306 1307 1308 1309 1310 1311 1312 1313 1314 1315 1316 1317 1318 1319 1320 1321 1322 1323 1324 1325 1326 1327 1328 1329 1330 1331 1332 1333 1334 1335 1336 1337 1338 1339 1340 1341 1342 1343 1344 1345 1346 1347 1348 1349 1350 1351 1352 1353 1354 1355 1356 1357 1358 1359 1360 1361 1362 1363 1364 1365 1366 1367 1368 1369 1370 1371 1372 1373 1374 1375 1376 1377 1378 1379 1380 1381 1382 1383 1384 1385 1386 1387 1388 1389 1390 1391 1392 1393 1394 1395 1396 1397 1398 1399 1400 1401 1402 1403 1404 1405 1406 1407 1408 1409 1410 1411 1412 1413 1414 1415 1416 1417 1418 1419 1420 1421 1422 1423 1424 1425 1426 1427 1428 1429 1430 1431 1432 1433 1434 1435 1436 1437 1438 1439 1440 1441 1442 1443 1444 1445 1446 1447 1448 1449 1450 1451 1452 1453 1454 1455 1456 1457 1458 1459 1460 1461 1462 1463 1464 1465 1466 1467 1468 1469 1470 1471 1472 1473 1474 1475 1476 1477 1478 1479 1480 1481 1482 1483 1484 1485 1486 1487 1488 1489 1490 1491 1492 1493 1494 1495 1496 1497 1498 1499 1500 1501 1502 1503 1504 1505 1506 1507 1508 1509 1510 1511 1512 1513 1514 1515 1516 1517 1518 1519 1520 1521 1522 1523 1524 1525 1526 1527 1528 1529 1530 1531 1532 1533 1534 1535 1536 1537 1538 1539 1540 1541 1542 1543 1544 1545 1546 1547 1548 1549 1550 1551 1552 1553 1554 1555 1556 1557 1558 1559 1560 1561 1562 1563 1564 1565 1566 1567 1568 1569 1570 1571 1572 1573 1574 1575 1576 1577 1578 1579 1580 1581 1582 1583 1584 1585 1586 1587 1588 1589 1590 1591 1592 1593 1594 1595 1596 1597 1598 1599 1600 1601 1602 1603 1604 1605 1606 1607 1608 1609 1610 1611 1612 1613 1614 1615 1616 1617 1618 1619 1620 1621 1622 1623 1624 1625 1626 1627 1628 1629 1630 1631 1632 1633 1634 1635 1636 1637 1638 1639 1640 1641 1642 1643 1644 1645 1646 1647 1648 1649 1650 1651 1652 1653 1654 1655 1656 1657 1658 1659 1660 1661 1662 1663 1664 1665 1666 1667 1668 1669 1670 1671 1672 1673 1674 1675 1676 1677 1678 1679 1680 1681 1682 1683 1684 1685 1686 1687 1688 1689 1690 1691 1692 1693 1694 1695 1696 1697 1698 1699 1700 1701 1702 1703 1704 1705 1706 1707 1708 1709 1710 1711 1712 1713 1714 1715 1716 1717 1718 1719 1720 1721 1722 1723 1724 1725 1726 1727 1728 1729 1730 1731 1732 1733 1734 1735 1736 1737 1738 1739 1740 1741 1742 1743 1744 1745 1746 1747 1748 1749 1750 1751 1752 1753 1754 1755 1756 1757 1758 1759 1760 1761 1762 1763 1764 1765 1766 1767 1768 1769 1770 1771 1772 1773 1774 1775 1776 1777 1778 1779 1780 1781 1782 1783 1784 1785 1786 1787 1788 1789 1790 1791 1792 1793 1794 1795 1796 1797 1798 1799 1800 1801 1802 1803 1804 1805 1806 1807 1808 1809 1810 1811 1812 1813 1814 1815 1816 1817 1818 1819 1820 1821 1822 1823 1824 1825 1826 1827 1828 1829 1830 1831 1832 1833 1834 1835 1836 1837 1838 1839 1840 1841 1842 1843 1844 1845 1846 1847 1848 1849 1850 1851 1852 1853 1854 1855 1856 1857 1858 1859 1860 1861 1862 1863 1864 1865 1866 1867 1868 1869 1870 1871 1872 1873 1874 1875 1876 1877 1878 1879 1880 1881 1882 1883 1884 1885 1886 1887 1888 1889 1890 1891 1892 1893 1894 1895 1896 1897 1898 1899 1900 1901 1902 1903 1904 1905 1906 1907 1908 1909 1910 1911 1912 1913 1914 1915 1916 1917 1918 1919 1920 1921 1922 1923 
    </DataArray>
    <DataArray Name="OriginalID" type="Int32" Format="ascii">
    0 7 6 1 2 4 3 9 5 42 79 72 36 43 78 108 114 144 115 151 150 74 73 37 38 110 145 146 109 222 186 187 180 223 216 252 259 288 331 295 330 294 258 324 217 218 181 182 254 326 290 253 325 289 39 75 76 40 112 111 147 148 41 1902 77 1906 1921 113 149 1905 1900 184 219 220 183 328 291 255 256 327 292 1904 185 221 1910 257 293 1918 1901 329 403 367 366 396 360 402 474 475 439 432 468 438 361 362 398 397 434 469 470 433 583 511 547 510 546 582 576 504 540 655 648 618 612 619 654 577 506 505 542 578 541 614 649 650 613 364 400 399 363 471 436 435 472 1898 1919 401 365 1869 1909 1899 1917 437 473 507 543 544 508 580 579 652 616 615 651 1866 1916 1878 545 581 509 1920 617 1896 653 1897 684 690 720 691 727 726 828 835 792 756 834 799 762 798 763 686 721 722 685 793 829 758 794 757 830 864 870 907 900 871 906 943 978 936 972 979 942 866 865 902 901 974 973 937 938 688 724 723 687 795 759 760 832 831 796 689 725 1893 1895 1860 1908 1912 1881 797 761 1894 833 903 867 904 868 939 940 975 976 869 1891 1892 1907 905 1911 1915 941 977 1923 1874 13 19 15 24 22 28 45 10 12 14 11 1861 1872 8 46 1873 44 80 16 47 20 17 49 18 84 48 83 81 119 1871 1890 116 1870 189 152 117 261 1868 1879 225 188 260 224 82 190 153 154 118 299 262 226 263 25 21 23 52 85 50 86 120 121 51 55 54 26 29 27 53 122 87 123 88 156 192 155 193 191 301 265 264 227 228 300 157 230 158 229 195 194 267 266 303 302 31 30 62 32 64 33 67 34 59 58 56 57 125 126 90 124 89 161 92 60 93 61 128 162 91 127 163 231 233 159 196 160 232 197 268 304 269 305 234 198 272 199 235 271 306 344 270 307 96 95 63 97 94 165 130 164 202 129 66 133 98 65 99 168 166 131 132 167 205 236 238 237 201 200 308 273 309 310 274 346 203 239 275 204 277 276 312 313 347 311 348 297 296 1865 333 1867 332 369 368 404 1863 1880 1876 334 335 405 370 298 440 477 406 441 442 513 548 584 1862 476 1887 585 656 1864 549 1889 620 514 586 478 512 551 622 550 658 659 337 336 373 407 372 371 444 479 481 408 443 445 339 411 374 375 409 338 483 447 446 410 517 515 480 516 552 553 588 624 587 625 623 518 555 519 482 554 591 627 626 589 590 662 692 728 621 764 657 908 1859 1877 729 836 800 693 766 694 730 872 801 802 873 765 838 1858 944 980 1883 1052 1884 1886 1053 1016 910 874 909 837 945 946 1018 982 981 911 696 695 733 660 731 732 697 803 767 804 768 769 734 700 699 698 663 661 770 771 735 805 806 839 876 841 875 877 840 912 947 948 984 983 842 807 843 878 915 914 949 1021 950 913 986 341 377 376 340 378 342 413 449 448 412 485 450 414 486 380 415 416 343 379 452 451 488 487 521 520 557 484 628 629 592 556 593 560 524 523 558 559 522 594 632 667 630 631 595 596 345 418 382 381 417 525 453 490 489 454 383 384 419 457 420 421 455 492 456 491 493 562 561 526 597 633 669 599 598 634 527 565 563 528 529 564 637 601 600 635 636 737 665 701 664 772 773 808 809 736 703 704 702 739 668 666 776 775 738 774 740 811 845 880 881 879 844 952 951 987 917 916 953 883 847 846 812 810 918 919 882 954 955 741 705 706 671 670 778 742 777 813 708 673 707 672 709 745 743 781 744 779 780 848 814 885 850 849 921 957 920 886 884 816 852 817 887 851 853 815 924 888 959 923 922 1015 1008 1051 1044 1014 1050 1123 1158 1086 1122 1152 1116 1087 1080 1159 1045 1010 1046 1009 1153 1118 1154 1081 1117 1082 1012 1011 1048 1047 1155 1083 1156 1120 1084 1119 1913 1903 1013 1882 1049 1157 1121 1085 1888 1922 1914 1124 1885 1875 1164 1088 1163 1162 1165 1167 1161 1160 1125 1089 1090 1017 1091 1166 1127 1126 1168 1130 1170 1169 1131 1056 1019 1055 1054 1128 1094 1129 1092 1171 1093 1172 1058 1057 1020 1059 985 1174 1173 1132 1133 1095 988 1060 1022 1024 1023 1061 989 1098 1100 1099 1097 1134 1135 1096 990 1025 991 1026 1137 1062 1175 1138 1063 1136 956 993 1028 992 1027 1139 1102 1064 1176 1101 960 958 996 994 1029 995 1066 1065 1067 1030 1031 1033 1140 1141 1177 1199 1032 1104 1103 1106 1068 1178 1190 1142 1143 1179 1189 1232 1221 1254 1243 1223 1200 1188 1211 1210 1222 1234 1256 1233 1245 1244 1287 1265 1276 1320 1309 1298 1266 1278 1277 1255 1300 1299 1289 1288 1331 1342 1353 1375 1364 1321 1312 1311 1310 1322 1332 1333 1355 1343 1344 1365 1386 1408 1397 1419 1367 1354 1388 1376 1366 1377 1398 1387 1399 1410 1452 1430 1441 1474 1463 1420 1409 1432 1421 1431 1464 1454 1453 1442 1496 1486 1485 1519 1507 1465 1487 1475 1497 1498 1509 1520 1510 1521 1508 69 35 70 71 105 107 100 136 134 101 102 207 170 206 135 171 169 103 137 138 68 173 209 172 208 174 242 240 241 280 278 350 315 385 349 314 279 244 281 246 243 210 245 282 316 351 352 353 317 141 139 104 140 106 176 212 213 175 249 211 179 143 142 214 177 178 215 247 285 283 248 357 319 320 318 284 355 286 287 250 251 322 359 321 323 386 424 387 422 423 496 494 459 531 495 458 460 390 388 354 389 425 462 426 461 497 566 530 532 567 568 604 602 639 603 640 638 534 498 569 570 533 642 606 605 641 356 427 391 392 428 464 463 499 465 501 431 358 429 394 393 395 467 466 430 503 536 535 500 537 572 573 571 607 643 645 644 608 609 575 538 502 539 574 647 611 646 610 676 711 710 674 712 675 783 746 747 782 784 678 677 714 713 786 750 748 749 785 818 855 819 854 926 927 890 889 891 925 857 822 820 821 856 858 894 929 893 892 681 680 679 715 716 717 753 751 788 752 787 789 682 719 683 790 791 755 718 754 860 823 859 824 825 896 931 895 933 932 897 863 861 826 827 862 899 934 898 935 997 961 962 999 963 1000 1035 1036 998 930 1001 928 964 966 965 1002 1037 1073 1038 1074 1105 1069 1107 1034 1070 1071 1108 1180 1191 1181 1144 1110 1072 1146 1109 1145 1182 1193 1183 1192 967 1003 968 969 1004 1076 1077 1041 1075 1040 1039 1005 971 970 1007 1006 1043 1079 1042 1078 1111 1148 1147 1112 1149 1196 1184 1185 1195 1194 1151 1114 1115 1113 1187 1186 1198 1150 1201 1203 1212 1213 1224 1214 1202 1235 1258 1246 1236 1225 1215 1205 1216 1204 1226 1247 1249 1227 1237 1267 1268 1269 1280 1257 1303 1301 1290 1279 1291 1302 1259 1248 1261 1270 1271 1260 1282 1293 1304 1292 1281 1207 1218 1229 1217 1219 1206 1251 1238 1239 1240 1228 1250 1209 1231 1197 1220 1208 1241 1230 1253 1242 1262 1273 1284 1272 1283 1305 1296 1295 1306 1294 1264 1252 1275 1263 1286 1307 1274 1285 1297 1308 1323 1313 1335 1324 1334 1356 1346 1357 1345 1325 1315 1314 1326 1337 1336 1347 1348 1358 1359 1390 1389 1369 1378 1368 1379 1411 1400 1401 1402 1412 1370 1381 1371 1392 1380 1425 1413 1391 1414 1403 1327 1328 1316 1318 1340 1317 1349 1351 1339 1338 1350 1361 1329 1341 1319 1330 1362 1373 1363 1352 1382 1383 1372 1360 1394 1405 1393 1404 1384 1374 1385 1395 1396 1407 1417 1418 1406 1422 1434 1433 1445 1423 1443 1466 1455 1456 1444 1457 1467 1436 1437 1435 1424 1447 1470 1469 1458 1446 1489 1488 1477 1476 1490 1478 1511 1522 1532 1499 1500 1492 1479 1491 1480 1468 1501 1534 1513 1502 1524 1523 1512 1426 1416 1415 1438 1428 1427 1449 1461 1460 1448 1459 1471 1429 1440 1450 1439 1483 1473 1451 1472 1462 1504 1482 1505 1503 1493 1481 1538 1516 1514 1525 1515 1526 1494 1506 1495 1484 1527 1528 1517 1518 1529 1562 1551 1540 1531 1530 1541 1542 1552 1575 1574 1564 1553 1563 1573 1584 1617 1595 1606 1586 1597 1585 1607 1596 1619 1629 1618 1608 1650 1639 1661 1672 1694 1652 1640 1628 1630 1641 1673 1662 1651 1663 1683 1728 1716 1729 1718 1706 1685 1684 1695 1705 1717 1727 1741 1707 1719 1696 1738 1731 1751 1750 1730 1740 1778 1749 1739 1555 1554 1533 1543 1544 1577 1566 1576 1565 1546 1536 1556 1545 1547 1535 1568 1557 1567 1578 1579 1588 1587 1609 1599 1598 1631 1622 1632 1620 1621 1610 1613 1590 1601 1600 1602 1589 1611 1623 1635 1612 1633 1559 1558 1548 1537 1591 1580 1571 1570 1569 1581 1550 1561 1539 1549 1560 1582 1583 1572 1603 1592 1604 1615 1626 1624 1637 1648 1625 1614 1605 1593 1594 1627 1616 1638 1642 1653 1655 1643 1664 1654 1686 1675 1665 1688 1674 1676 1656 1645 1634 1644 1668 1677 1667 1666 1689 1678 1687 1697 1710 1698 1708 1720 1709 1732 1742 1712 1711 1700 1699 1744 1722 1721 1733 1743 1734 1657 1658 1659 1646 1647 1636 1680 1669 1679 1670 1681 1692 1660 1649 1682 1671 1701 1702 1714 1690 1691 1703 1723 1713 1724 1736 1725 1735 1693 1704 1737 1726 1715 1760 1769 1761 1752 1770 1779 1797 1796 1788 1759 1771 1755 1753 1754 1762 1789 1772 1780 1773 1763 1819 1804 1805 1787 1795 1811 1810 1818 1817 1803 1781 1812 1798 1790 1782 1825 1824 1820 1806 1757 1747 1756 1746 1767 1745 1783 1775 1764 1776 1774 1766 1765 1758 1748 1777 1768 1791 1784 1801 1793 1785 1800 1808 1792 1799 1813 1786 1794 1809 1802 1823 1839 1848 1829 1830 1845 1842 1834 1843 1847 1815 1814 1831 1807 1844 1835 1837 1826 1851 1841 1816 1821 1822 1827 1840 1846 1838 1850 1836 1855 1853 1832 1833 1828 1854 1852 1849 1856 1857 
    </DataArray>
    <DataArray Name="Density" type="Float32" Format="ascii">