<?xml version="1.0"?>
<VTKFile type="PolyData" version="0.1" byte_order="LittleEndian">
 <PolyData>
  <Piece Name ="WaterBlock" NumberOfPoints="2113" NumberOfVerts="2113">
   <Points>
    <DataArray Name="Position" type="Float32"  NumberOfComponents="3" Format="ascii">
    0.01 0.0390093 0 0.01 0.0190093 0 0.01 0.0590093 0 0.01 0.0990093 0 0.01 0.0790093 0 0.01 0.119009 0 0.01 0.139009 0 0.01 0.159009 0 0.05 0.0390093 0 0.03 0.0190093 0 0.05 0.0190093 0 0.03 0.0390093 0 0.09 0.0390093 0 0.09 0.0190093 0 0.07 0.0390093 0 0.07 0.0190093 0 0.05 0.0790093 0 0.05 0.0990093 0 0.03 0.0790093 0 0.03 0.0990093 0 0.03 0.0590093 0 0.05 0.0590093 0 0.09 0.0790093 0 0.09 0.0990093 0 0.07 0.0790093 0 0.07 0.0990093 0 0.09 0.0590093 0 0.07 0.0590093 0 0.11 0.0390093 0 0.13 0.0390093 0 0.13 0.0190093 0 0.11 0.0190093 0 0.17 0.0190093 0 0.19 0.0190093 0 0.15 0.0190093 0 0.17 0.0390093 0 0.15 0.0390093 0 0.19 0.0390093 0 0.11 0.0790093 0 0.11 0.0990093 0 0.13 0.0990093 0 0.13 0.0790093 0 0.13 0.0590093 0 0.11 0.0590093 0 0.15 0.0990093 0 0.19 0.0790093 0 0.15 0.0790093 0 0.19 0.0990093 0 0.17 0.0590093 0 0.15 0.0590093 0 0.19 0.0590093 0 0.17 0.0990093 0 0.17 0.0790093 0 0.03 0.139009 0 0.05 0.139009 0 0.03 0.119009 0 0.05 0.119009 0 0.07 0.139009 0 0.07 0.119009 0 0.09 0.119009 0 0.09 0.139009 0 0.05 0.159009 0 0.03 0.159009 0 0.0532986 0.19184 0 0.0158001 0.190994 0 0.0172431 0.175401 0 0.0408419 0.178539 0 0.07 0.159009 0 0.0921444 0.176777 0 0.09 0.159009 0 0.0798042 0.190679 0 0.0652658 0.176317 0 0.13 0.139009 0 0.11 0.139009 0 0.13 0.119009 0 0.11 0.119009 0 0.15 0.139009 0 0.17 0.119009 0 0.19 0.139009 0 0.19 0.119009 0 0.15 0.119009 0 0.17 0.139009 0 0.138189 0.177175 0 0.13 0.159009 0 0.107113 0.192455 0 0.11 0.159009 0 0.115978 0.178213 0 0.134869 0.194598 0 0.184617 0.180849 0 0.163787 0.176468 0 0.19 0.159009 0 0.155826 0.19218 0 0.15 0.159009 0 0.17 0.159009 0 0.21 0.0190093 0 0.23 0.0190093 0 0.21 0.0390093 0 0.23 0.0390093 0 0.25 0.0190093 0 0.27 0.0190093 0 0.25 0.0390093 0 0.27 0.0390093 0 0.21 0.0590093 0 0.23 0.0790093 0 0.21 0.0990093 0 0.23 0.0990093 0 0.23 0.0590093 0 0.21 0.0790093 0 0.27 0.0790093 0 0.25 0.0990093 0 0.27 0.0990093 0 0.25 0.0790093 0 0.27 0.0590093 0 0.25 0.0590093 0 0.33 0.0390093 0 0.31 0.0190093 0 0.33 0.0190093 0 0.29 0.0190093 0 0.29 0.0390093 0 0.31 0.0390093 0 0.37 0.0190093 0 0.35 0.0390093 0 0.35 0.0190093 0 0.37 0.0390093 0 0.31 0.0790093 0 0.29 0.0990093 0 0.33 0.0790093 0 0.33 0.0990093 0 0.29 0.0590093 0 0.29 0.0790093 0 0.33 0.0590093 0 0.31 0.0590093 0 0.31 0.0990093 0 0.35 0.0990093 0 0.35 0.0790093 0 0.37 0.0990093 0 0.37 0.0790093 0 0.35 0.0590093 0 0.37 0.0590093 0 0.21 0.119009 0 0.23 0.139009 0 0.21 0.139009 0 0.23 0.119009 0 0.27 0.119009 0 0.25 0.119009 0 0.27 0.139009 0 0.25 0.139009 0 0.201749 0.177087 0 0.216829 0.189711 0 0.21 0.159009 0 0.228975 0.176889 0 0.23 0.159009 0 0.269883 0.183027 0 0.25 0.159009 0 0.287809 0.176264 0 0.27 0.159009 0 0.243535 0.194108 0 0.252813 0.177535 0 0.29 0.119009 0 0.29 0.139009 0 0.33 0.139009 0 0.31 0.119009 0 0.33 0.119009 0 0.31 0.139009 0 0.37 0.119009 0 0.35 0.139009 0 0.35 0.119009 0 0.37 0.139009 0 0.305504 0.184252 0 0.31 0.159009 0 0.33 0.159009 0 0.29 0.159009 0 0.322345 0.176536 0 0.37 0.159009 0 0.342884 0.180368 0 0.35 0.159009 0 0.361369 0.178389 0 0.39 0.0190093 0 0.41 0.0190093 0 0.39 0.0390093 0 0.41 0.0390093 0 0.47 0.0390093 0 0.45 0.0390093 0 0.47 0.0190093 0 0.43 0.0390093 0 0.43 0.0190093 0 0.45 0.0190093 0 0.41 0.0590093 0 0.39 0.0790093 0 0.39 0.0990093 0 0.41 0.0790093 0 0.41 0.0990093 0 0.39 0.0590093 0 0.47 0.0790093 0 0.47 0.0990093 0 0.43 0.0990093 0 0.45 0.0990093 0 0.43 0.0790093 0 0.47 0.0590093 0 0.43 0.0590093 0 0.45 0.0590093 0 0.45 0.0790093 0 0.51 0.0190093 0 0.51 0.0390093 0 0.49 0.0390093 0 0.49 0.0190093 0 0.53 0.0390093 0 0.55 0.0190093 0 0.55 0.0390093 0 0.53 0.0190093 0 0.49 0.0990093 0 0.49 0.0590093 0 0.51 0.0990093 0 0.51 0.0790093 0 0.49 0.0790093 0 0.51 0.0590093 0 0.55 0.0590093 0 0.55 0.0990093 0 0.53 0.0790093 0 0.53 0.0990093 0 0.55 0.0790093 0 0.53 0.0590093 0 0.39 0.119009 0 0.39 0.139009 0 0.41 0.119009 0 0.41 0.139009 0 0.47 0.139009 0 0.47 0.119009 0 0.43 0.119009 0 0.45 0.119009 0 0.45 0.139009 0 0.43 0.139009 0 0.38225 0.177793 0 0.39 0.159009 0 0.42495 0.176757 0 0.41 0.159009 0 0.402525 0.178968 0 0.410105 0.19425 0 0.43 0.159009 0 0.47 0.159009 0 0.46199 0.178082 0 0.45 0.159009 0 0.444327 0.181461 0 0.51 0.119009 0 0.49 0.119009 0 0.49 0.139009 0 0.51 0.139009 0 0.53 0.139009 0 0.55 0.119009 0 0.55 0.139009 0 0.53 0.119009 0 0.48279 0.177591 0 0.509621 0.176058 0 0.497605 0.19049 0 0.51 0.159009 0 0.49 0.159009 0 0.53 0.159009 0 0.563772 0.19567 0 0.55 0.159009 0 0.524391 0.192853 0 0.535 0.177293 0 0.555222 0.178814 0 0.0103064 0.223949 0 0.010921 0.276354 0 0.00705929 0.255935 0 0.00870758 0.308983 0 0.00855093 0.364539 0 0.0101873 0.341555 0 0.0315833 0.222091 0 0.0172887 0.239406 0 0.048847 0.219505 0 0.0138936 0.205279 0 0.0485368 0.240606 0 0.0371495 0.200891 0 0.0991609 0.219365 0 0.0699449 0.240501 0 0.0651676 0.208659 0 0.0734504 0.22435 0 0.0884534 0.205794 0 0.0932546 0.237466 0 0.0377914 0.285277 0 0.048467 0.270245 0 0.0346704 0.249053 0 0.0278535 0.266761 0 0.0972012 0.253963 0 0.0671287 0.277884 0 0.0863069 0.285138 0 0.0632041 0.256811 0 0.0840796 0.263579 0 0.134648 0.215569 0 0.132999 0.237941 0 0.118266 0.207901 0 0.115631 0.230789 0 0.170779 0.239016 0 0.175208 0.200387 0 0.15232 0.22998 0 0.176451 0.220299 0 0.192534 0.202695 0 0.155493 0.212519 0 0.190442 0.236578 0 0.104703 0.276279 0 0.123642 0.267034 0 0.143183 0.266319 0 0.150265 0.251772 0 0.118594 0.251538 0 0.145752 0.286627 0 0.163759 0.27928 0 0.18477 0.272067 0 0.168782 0.258787 0 0.192135 0.256643 0 0.0381453 0.327185 0 0.015285 0.292993 0 0.0160765 0.328946 0 0.0569036 0.329955 0 0.0302993 0.309772 0 0.0457411 0.300763 0 0.066491 0.296041 0 0.0873855 0.3069 0 0.0862597 0.322143 0 0.063603 0.313833 0 0.0441519 0.365496 0 0.0394247 0.345501 0 0.026154 0.358137 0 0.0917223 0.379509 0 0.0687542 0.367239 0 0.0978389 0.344943 0 0.0628713 0.350862 0 0.0768297 0.338499 0 0.0880154 0.359903 0 0.124161 0.288129 0 0.139924 0.320588 0 0.10537 0.296369 0 0.108812 0.330486 0 0.112832 0.31475 0 0.132025 0.30369 0 0.15805 0.332779 0 0.187092 0.291437 0 0.176018 0.324186 0 0.156078 0.310586 0 0.188156 0.308799 0 0.165791 0.297627 0 0.127816 0.334715 0 0.110359 0.36078 0 0.129869 0.351926 0 0.130064 0.369683 0 0.194258 0.374301 0 0.192415 0.356286 0 0.152399 0.367214 0 0.171826 0.356044 0 0.183299 0.338817 0 0.171875 0.374974 0 0.150766 0.347457 0 0.00945023 0.397239 0 0.00873873 0.459091 0 0.00664906 0.433596 0 0.0102053 0.499336 0 0.0109735 0.479621 0 0.00658709 0.561283 0 0.0095971 0.520998 0 0.056584 0.382317 0 0.0135423 0.415209 0 0.0358423 0.384269 0 0.0558311 0.402988 0 0.0348901 0.401672 0 0.0156616 0.381438 0 0.0323704 0.419653 0 0.0582029 0.420571 0 0.0754009 0.390674 0 0.0771097 0.412831 0 0.0920514 0.400935 0 0.0312444 0.43766 0 0.0521982 0.43557 0 0.0240006 0.453112 0 0.0423963 0.459536 0 0.066647 0.445979 0 0.0854473 0.444919 0 0.0779077 0.466246 0 0.0582261 0.46536 0 0.0864597 0.428822 0 0.103249 0.45715 0 0.144313 0.422829 0 0.125931 0.419544 0 0.105058 0.420825 0 0.128013 0.392573 0 0.110108 0.381097 0 0.146533 0.404455 0 0.113704 0.402194 0 0.147238 0.384412 0 0.16671 0.421675 0 0.181621 0.391596 0 0.164308 0.398854 0 0.183736 0.411649 0 0.136682 0.440505 0 0.13961 0.46381 0 0.122443 0.453785 0 0.111566 0.437411 0 0.177854 0.447952 0 0.182525 0.470752 0 0.194414 0.456711 0 0.160055 0.43951 0 0.156756 0.457869 0 0.186951 0.430965 0 0.0441869 0.481952 0 0.0436273 0.507336 0 0.0271441 0.505125 0 0.0285464 0.480379 0 0.102914 0.508238 0 0.0712192 0.485152 0 0.0771048 0.507787 0 0.058526 0.498536 0 0.0895627 0.492682 0 0.0967091 0.472216 0 0.0416604 0.544208 0 0.0125922 0.5384 0 0.0544162 0.56059 0 0.052312 0.527226 0 0.0310085 0.528422 0 0.0245175 0.554274 0 0.0949433 0.558236 0 0.0947291 0.523722 0 0.0678913 0.545899 0 0.0853609 0.540629 0 0.0693104 0.524466 0 0.123082 0.506769 0 0.111519 0.487577 0 0.13914 0.504876 0 0.14149 0.485449 0 0.123396 0.477442 0 0.169548 0.509447 0 0.191716 0.504512 0 0.159477 0.494244 0 0.163145 0.475449 0 0.183072 0.489005 0 0.130543 0.561628 0 0.117617 0.527625 0 0.134024 0.544714 0 0.108711 0.541966 0 0.139413 0.526851 0 0.154726 0.563018 0 0.17276 0.562949 0 0.15729 0.521311 0 0.186812 0.525286 0 0.173078 0.537172 0 0.190834 0.54603 0 0.155378 0.544611 0 0.20941 0.207276 0 0.213854 0.241748 0 0.227901 0.227305 0 0.203548 0.224891 0 0.231383 0.20708 0 0.260353 0.20513 0 0.244848 0.223274 0 0.259605 0.241869 0 0.266748 0.220089 0 0.281104 0.199459 0 0.278802 0.235997 0 0.22658 0.282222 0 0.239078 0.245378 0 0.20702 0.279857 0 0.231449 0.261743 0 0.211981 0.259972 0 0.283727 0.272334 0 0.246509 0.282067 0 0.252718 0.262933 0 0.265616 0.281161 0 0.272962 0.256048 0 0.331545 0.196711 0 0.30425 0.200514 0 0.297642 0.235915 0 0.311163 0.222571 0 0.290418 0.214947 0 0.326268 0.210962 0 0.321829 0.238665 0 0.369217 0.21348 0 0.356561 0.198568 0 0.378918 0.196217 0 0.346469 0.216461 0 0.360132 0.233503 0 0.339699 0.23417 0 0.292249 0.287835 0 0.310042 0.281453 0 0.296075 0.256724 0 0.325234 0.27654 0 0.333346 0.256832 0 0.311814 0.25715 0 0.346062 0.273293 0 0.375167 0.286468 0 0.367166 0.268283 0 0.375186 0.247813 0 0.353241 0.252987 0 0.222104 0.313999 0 0.228051 0.333077 0 0.203095 0.319732 0 0.23639 0.300885 0 0.20965 0.297401 0 0.254457 0.305428 0 0.244109 0.3232 0 0.264501 0.324768 0 0.283494 0.324987 0 0.272208 0.299211 0 0.239938 0.37031 0 0.206018 0.337708 0 0.239144 0.351903 0 0.215358 0.368959 0 0.217787 0.351602 0 0.255244 0.344114 0 0.258416 0.369928 0 0.272305 0.345694 0 0.274643 0.367066 0 0.326412 0.298359 0 0.289013 0.308272 0 0.309491 0.305456 0 0.318909 0.321746 0 0.3026 0.330806 0 0.353528 0.289135 0 0.355504 0.323714 0 0.341927 0.304924 0 0.337519 0.327587 0 0.375023 0.330047 0 0.363799 0.306884 0 0.293626 0.36781 0 0.310701 0.355454 0 0.32
[...]
   <PointData  Vectors="vector">
    <DataArray Name="SortedParticle_ID" type="Int32" Format="ascii">
    0 1 2 3 4 5 6 7 8 9 10 11 12 13 14 15 16 17 18 19 20 21 22 23 24 25 26 27 28 29 30 31 32 33 34 35 36 37 38 39 40 41 42 43 44 45 46 47 48 49 50 51 52 53 54 55 56 57 58 59 60 61 62 63 64 65 66 67 68 69 70 71 72 73 74 75 76 77 78 79 80 81 82 83 84 85 86 87 88 89 90 91 92 93 94 95 96 97 98 99 100 101 102 103 104 105 106 107 108 109 110 111 112 113 114 115 116 117 118 119 120 121 122 123 124 125 126 127 128 129 130 131 132 133 134 135 136 137 138 139 140 141 142 143 144 145 146 147 148 149 150 151 152 153 154 155 156 157 158 159 160 161 162 163 164 165 166 167 168 169 170 171 172 173 174 175 176 177 178 179 180 181 182 183 184 185 186 187 188 189 190 191 192 193 194 195 196 197 198 199 200 201 202 203 204 205 206 207 208 209 210 211 212 213 214 215 216 217 218 219 220 221 222 223 224 225 226 227 228 229 230 231 232 233 234 235 236 237 238 239 240 241 242 243 244 245 246 247 248 249 250 251 252 253 254 255 256 257 258 259 260 261 262 263 264 265 266 267 268 269 270 271 272 273 274 275 276 277 278 279 280 281 282 283 284 285 286 287 288 289 290 291 292 293 294 295 296 297 298 299 300 301 302 303 304 305 306 307 308 309 310 311 312 313 314 315 316 317 318 319 320 321 322 323 324 325 326 327 328 329 330 331 332 333 334 335 336 337 338 339 340 341 342 343 344 345 346 347 348 349 350 351 352 353 354 355 356 357 358 359 360 361 362 363 364 365 366 367 368 369 370 371 372 373 374 375 376 377 378 379 380 381 382 383 384 385 386 387 388 389 390 391 392 393 394 395 396 397 398 399 400 401 402 403 404 405 406 407 408 409 410 411 412 413 414 415 416 417 418 419 420 421 422 423 424 425 426 427 428 429 430 431 432 433 434 435 436 437 438 439 440 441 442 443 444 445 446 447 448 449 450 451 452 453 454 455 456 457 458 459 460 461 462 463 464 465 466 467 468 469 470 471 472 473 474 475 476 477 478 479 480 481 482 483 484 485 486 487 488 489 490 491 492 493 494 495 496 497 498 499 500 501 502 503 504 505 506 507 508 509 510 511 512 513 514 515 516 517 518 519 520 521 522 523 524 525 526 527 528 529 530 531 532 533 534 535 536 537 538 539 540 541 542 543 544 545 546 547 548 549 550 551 552 553 554 555 556 557 558 559 560 561 562 563 564 565 566 567 568 569 570 571 572 573 574 575 576 577 578 579 580 581 582 583 584 585 586 587 588 589 590 591 592 593 594 595 596 597 598 599 600 601 602 603 604 605 606 607 608 609 610 611 612 613 614 615 616 617 618 619 620 621 622 623 624 625 626 627 628 629 630 631 632 633 634 635 636 637 638 639 640 641 642 643 644 645 646 647 648 649 650 651 652 653 654 655 656 657 658 659 660 661 662 663 664 665 666 667 668 669 670 671 672 673 674 675 676 677 678 679 680 681 682 683 684 685 686 687 688 689 690 691 692 693 694 695 696 697 698 699 700 701 702 703 704 705 706 707 708 709 710 711 712 713 714 715 716 717 718 719 720 721 722 723 724 725 726 727 728 729 730 731 732 733 734 735 736 737 738 739 740 741 742 743 744 745 746 747 748 749 750 751 752 753 754 755 756 757 758 759 760 761 762 763 764 765 766 767 768 769 770 771 772 773 774 775 776 777 778 779 780 781 782 783 784 785 786 787 788 789 790 791 792 793 794 795 796 797 798 799 800 801 802 803 804 805 806 807 808 809 810 811 812 813 814 815 816 817 818 819 820 821 822 823 824 825 826 827 828 829 830 831 832 833 834 835 836 837 838 839 840 841 842 843 844 845 846 847 848 849 850 851 852 853 854 855 856 857 858 859 860 861 862 863 864 865 866 867 868 869 870 871 872 873 874 875 876 877 878 879 880 881 882 883 884 885 886 887 888 889 890 891 892 893 894 895 896 897 898 899 900 901 902 903 904 905 906 907 908 909 910 911 912 913 914 915 916 917 918 919 920 921 922 923 924 925 926 927 928 929 930 931 932 933 934 935 936 937 938 939 940 941 942 943 944 945 946 947 948 949 950 951 952 953 954 955 956 957 958 959 960 961 962 963 964 965 966 967 968 969 970 971 972 973 974 975 976 977 978 979 980 981 982 983 984 985 986 987 988 989 990 991 992 993 994 995 996 997 998 999 1000 1001 1002 1003 1004 1005 1006 1007 1008 1009 1010 1011 1012 1013 1014 1015 1016 1017 1018 1019 1020 1021 1022 1023 1024 1025 1026 1027 1028 1029 1030 1031 1032 1033 1034 1035 1036 1037 1038 1039 1040 1041 1042 1043 1044 1045 1046 1047 1048 1049 1050 1051 1052 1053 1054 1055 1056 1057 1058 1059 1060 1061 1062 1063 1064 1065 1066 1067 1068 1069 1070 1071 1072 1073 1074 1075 1076 1077 1078 1079 1080 1081 1082 1083 1084 1085 1086 1087 1088 1089 1090 1091 1092 1093 1094 1095 1096 1097 1098 1099 1100 1101 1102 1103 1104 1105 1106 1107 1108 1109 1110 1111 1112 1113 1114 1115 1116 1117 1118 1119 1120 1121 1122 1123 1124 1125 1126 1127 1128 1129 1130 1131 1132 1133 1134 1135 1136 1137 1138 1139 1140 1141 1142 1143 1144 1145 1146 1147 1148 1149 1150 1151 1152 1153 1154 1155 1156 1157 1158 1159 1160 1161 1162 1163 1164 1165 1166 1167 1168 1169 1170 1171 1172 1173 1174 1175 1176 1177 1178 1179 1180 1181 1182 1183 1184 1185 1186 1187 1188 1189 1190 1191 1192 1193 1194 1195 1196 1197 1198 1199 1200 1201 1202 1203 1204 1205 1206 1207 1208 1209 1210 1211 1212 1213 1214 1215 1216 1217 1218 1219 1220 1221 1222 1223 1224 1225 1226 1227 1228 1229 1230 1231 1232 1233 1234 1235 1236 1237 1238 1239 1240 1241 1242 1243 1244 1245 1246 1247 1248 1249 1250 1251 1252 1253 1254 1255 1256 1257 1258 1259 1260 1261 1262 1263 1264 1265 1266 1267 1268 1269 1270 1271 1272 1273 1274 1275 1276 1277 1278 1279 1280 1281 1282 1283 1284 1285 1286 1287 1288 1289 1290 1291 1292 1293 1294 1295 1296 1297 1298 1299 1300 1301 1302 1303 1304 1305 1306 1307 1308 1309 1310 1311 1312 1313 1314 1315 1316 1317 1318 1319 1320 1321 1322 1323 1324 1325 1326 1327 1328 1329 1330 1331 1332 1333 1334 1335 1336 1337 1338 1339 1340 1341 1342 1343 1344 1345 1346 1347 1348 1349 1350 1351 1352 1353 1354 1355 1356 1357 1358 1359 1360 1361 1362 1363 1364 1365 1366 1367 1368 1369 1370 1371 1372 1373 1374 1375 1376 1377 1378 1379 1380 1381 1382 1383 1384 1385 1386 1387 1388 1389 1390 1391 1392 1393 1394 1395 1396 1397 1398 1399 1400 1401 1402 1403 1404 1405 1406 1407 1408 1409 1410 1411 1412 1413 1414 1415 1416 1417 1418 1419 1420 1421 1422 1423 1424 1425 1426 1427 1428 1429 1430 1431 1432 1433 1434 1435 1436 1437 1438 1439 1440 1441 1442 1443 1444 1445 1446 1447 1448 1449 1450 1451 1452 1453 1454 1455 1456 1457 1458 1459 1460 1461 1462 1463 1464 1465 1466 1467 1468 1469 1470 1471 1472 1473 1474 1475 1476 1477 1478 1479 1480 1481 1482 1483 1484 1485 1486 1487 1488 1489 1490 1491 1492 1493 1494 1495 1496 1497 1498 1499 1500 1501 1502 1503 1504 1505 1506 1507 1508 1509 1510 1511 1512 1513 1514 1515 1516 1517 1518 1519 1520 1521 1522 1523 1524 1525 1526 1527 1528 1529 1530 1531 1532 1533 1534 1535 1536 1537 1538 1539 1540 1541 1542 1543 1544 1545 1546 1547 1548 1549 1550 1551 1552 1553 1554 1555 1556 1557 1558 1559 1560 1561 1562 1563 1564 1565 1566 1567 1568 1569 1570 1571 1572 1573 1574 1575 1576 1577 1578 1579 1580 1581 1582 1583 1584 1585 1586 1587 1588 1589 1590 1591 1592 1593 1594 1595 1596 1597 1598 1599 1600 1601 1602 1603 1604 1605 1606 1607 1608 1609 1610 1611 1612 1613 1614 1615 1616 1617 1618 1619 1620 1621 1622 1623 1624 1625 1626 1627 1628 1629 1630 1631 1632 1633 1634 1635 1636 1637 1638 1639 1640 1641 1642 1643 1644 1645 1646 1647 1648 1649 1650 1651 1652 1653 1654 1655 1656 1657 1658 1659 1660 1661 1662 1663 1664 1665 1666 1667 1668 1669 1670 1671 1672 1673 1674 1675 1676 1677 1678 1679 1680 1681 1682 1683 1684 1685 1686 1687 1688 1689 1690 1691 1692 1693 1694 1695 1696 1697 1698 1699 1700 1701 1702 1703 1704 1705 1706 1707 1708 1709 1710 1711 1712 1713 1714 1715 1716 1717 1718 1719 1720 1721 1722 1723 1724 1725 1726 1727 1728 1729 1730 1731 1732 1733 1734 1735 1736 1737 1738 1739 1740 1741 1742 1743 1744 1745 1746 1747 1748 1749 1750 1751 1752 1753 1754 1755 1756 1757 1758 1759 1760 1761 1762 1763 1764 1765 1766 1767 1768 1769 1770 1771 1772 1773 1774 1775 1776 1777 1778 1779 1780 1781 1782 1783 1784 1785 1786 1787 1788 1789 1790 1791 1792 1793 1794 1795 1796 1797 1798 1799 1800 1801 1802 1803 1804 1805 1806 1807 1808 1809 1810 1811 1812 1813 1814 1815 1816 1817 1818 1819 1820 1821 1822 1823 1824 1825 1826 1827 1828 1829 1830 1831 1832 1833 1834 1835 1836 1837 1838 1839 1840 1841 1842 1843 1844 1845 1846 1847 1848 1849 1850 1851 1852 1853 1854 1855 1856 1857 1858 1859 1860 1861 1862 1863 1864 1865 1866 1867 1868 1869 1870 1871 1872 1873 1874 1875 1876 1877 1878 1879 1880 1881 1882 1883 1884 1885 1886 1887 1888 1889 1890 1891 1892 1893 1894 1895 1896 1897 1898 1899 1900 1901 1902 1903 1904 1905 1906 1907 1908 1909 1910 1911 1912 1913 1914 1915 1916 1917 1918 1919 1920 1921 1922 1923 1924 1925 1926 1927 1928 1929 1930 1931 1932 1933 1934 1935 1936 1937 1938 1939 1940 1941 1942 1943 1944 1945 1946 1947 1948 1949 1950 1951 1952 1953 1954 1955 1956 1957 1958 1959 1960 1961 1962 1963 1964 1965 1966 1967 1968 1969 1970 1971 1972 1973 1974 1975 1976 1977 1978 1979 1980 1981 1982 1983 1984 1985 1986 1987 1988 1989 1990 1991 1992 1993 1994 1995 1996 1997 1998 1999 2000 2001 2002 2003 2004 2005 2006 2007 2008 2009 2010 2011 2012 2013 2014 2015 2016 2017 2018 2019 2020 2021 2022 2023 2024 2025 2026 2027 2028 2029 2030 2031 2032 2033 2034 2035 2036 2037 2038 2039 2040 2041 2042 2043 2044 2045 2046 2047 2048 2049 2050 2051 2052 2053 2054 2055 2056 2057 2058 2059 2060 2061 2062 2063 2064 2065 2066 2067 2068 2069 2070 2071 2072 2073 2074 2075 2076 2077 2078 2079 2080 2081 2082 2083 2084 2085 2086 2087 2088 2089 2090 2091 2092 2093 2094 2095 2096 2097 2098 2099 2100 2101 2102 2103 2104 2105 2106 2107 2108 2109 2110 2111 2112 
    </DataArray>
    <DataArray Name="OriginalID" type="Int32" Format="ascii">
    3 2 4 6 5 7 0 1 75 38 74 39 147 146 111 110 77 78 41 42 40 76 149 150 113 114 148 112 183 219 218 182 290 326 254 291 255 327 185 186 222 221 220 184 258 329 257 330 292 256 328 294 293 36 72 43 79 108 115 151 144 73 37 373 316 141 730 109 356 145 1780 836 216 180 223 187 252 295 324 331 259 288 1144 217 358 181 803 2103 1877 1189 325 1608 253 289 362 398 363 399 434 470 435 471 364 401 366 402 400 365 473 438 474 437 472 436 579 542 578 506 507 543 650 615 614 651 545 510 581 582 508 509 580 544 546 618 617 654 653 616 652 367 396 360 403 475 439 468 432 606 1000 361 1022 397 909 433 662 469 626 770 511 504 576 547 583 540 655 612 619 648 586 541 577 505 838 649 734 613 661 686 722 687 723 831 795 830 759 758 794 724 689 690 725 726 688 833 834 762 798 761 832 760 796 797 902 903 867 866 939 974 975 938 870 868 906 905 869 904 976 978 941 942 977 940 691 684 727 720 828 835 763 799 792 756 593 685 622 721 624 1256 757 829 669 793 633 907 871 864 900 936 979 972 943 1299 1340 703 901 865 937 554 973 969 873 968 224 424 1873 419 1368 1837 213 2059 414 1483 1746 2054 372 423 422 298 101 152 1985 375 1387 1937 2119 1904 1307 451 2091 341 167 457 487 106 80 135 806 630 211 1766 1793 2150 174 1965 2170 97 313 100 227 1964 320 421 1963 214 1966 239 1377 2058 198 2057 261 1406 251 153 238 33 283 35 275 164 232 394 204 210 277 2104 413 121 156 196 1930 81 2074 248 1854 85 154 139 88 125 16 447 412 264 417 340 30 22 392 2060 2007 2106 273 229 9 1935 1944 14 352 1821 458 2116 117 332 389 237 44 228 194 137 1918 94 321 282 200 285 195 271 24 235 17 83 118 1902 233 59 52 91 155 1861 58 46 1929 230 1953 2005 1905 274 2027 266 70 124 299 262 15 203 244 171 130 133 57 206 116 18 179 54 49 87 122 23 104 53 2089 90 96 160 199 303 32 197 143 21 177 158 159 1141 380 1108 379 700 1320 552 1921 769 627 771 1721 395 202 1705 377 698 1868 161 2145 742 657 707 1259 631 677 629 709 1349 699 590 1179 738 813 381 1147 1288 745 665 1311 747 752 701 1231 1190 2157 50 240 315 1954 170 1732 1890 28 140 2002 55 1990 51 2133 415 241 2158 2136 1067 416 743 1194 1318 1272 1386 879 807 746 1508 386 263 774 1933 286 301 1309 1107 455 683 1757 1341 667 706 663 702 714 1037 1289 632 668 1199 862 931 1030 1329 713 1223 1032 1298 809 1101 1255 952 674 1254 1243 773 891 708 567 1142 1277 710 1217 779 740 810 1475 1287 644 1091 1221 1496 647 1070 1185 863 1278 781 861 1232 777 1211 1031 848 646 932 715 883 1216 1266 997 916 811 1066 1028 881 849 1250 2153 1535 1264 846 1088 1939 783 852 1079 1233 1279 1396 1136 1065 1326 1054 1375 1242 119 47 205 95 138 27 2137 166 349 20 48 2159 123 61 26 201 169 2203 99 2135 56 120 165 93 2023 450 1992 342 641 1871 778 212 249 493 231 25 2125 1805 1829 142 284 323 162 1998 12 486 131 495 309 208 1870 311 136 337 60 1910 265 172 1745 1977 1731 308 129 306 226 1958 382 1994 2164 1664 71 351 1687 132 173 2248 387 66 1806 1924 247 1338 1820 339 347 1635 776 814 787 744 919 882 780 819 748 461 374 1276 1252 1555 820 1213 818 431 1244 965 933 1267 1245 858 1205 986 785 1686 1441 1201 753 1738 1218 1064 993 817 1248 784 1029 786 459 483 1844 215 1069 680 1301 1036 854 717 336 296 1187 1114 887 1562 1151 1004 1258 1215 1280 1042 755 935 857 1071 1198 1193 1247 1077 1374 996 920 1206 929 885 1222 1184 886 719 827 1010 1011 1046 1047 1119 1083 1118 1082 1155 1154 1014 1048 1012 1013 1050 1049 1085 1157 1158 1122 1120 1156 1084 1121 1086 1008 1015 1044 1051 1123 1080 1152 1087 1116 1159 1045 587 1009 592 1081 695 1117 1153 741 815 670 591 1126 736 1605 672 1103 705 1950 2275 1344 877 1885 1629 984 628 946 2253 1055 912 1915 1370 1176 1838 911 1090 948 1658 1019 1098 1128 1092 1093 1164 1130 1061 2245 1525 1125 2213 839 874 947 1595 1744 1736 1543 1056 1170 1135 1951 1059 1094 1053 1168 1057 1383 1207 918 2264 1756 2138 876 1165 1922 1127 2053 1095 1286 1020 955 1888 1026 1646 2272 1768 1132 983 1096 1431 1676 896 1352 1324 1058 1274 1174 1163 1485 1171 1270 1573 1424 1728 1322 791 895 1798 1476 1319 1432 1186 1464 1275 1021 1550 1581 1600 1378 1343 1443 1345 1457 1514 1717 1653 1491 1741 1621 1547 1665 1782 1534 1511 1523 1760 1624 1479 1162 1811 1541 2276 1579 1129 1666 1769 1645 1594 1533 1576 1570 1133 985 1803 1679 1578 1604 1680 1743 1097 1691 1637 1720 1567 1572 2273 1598 1695 1848 1789 1779 1668 1702 2258 1671 1733 1715 2268 1592 1052 1566 1824 1602 1791 1688 1716 2256 1914 1842 2254 1850 1627 1649 1677 2257 304 2240 1835 1682 1828 418 1427 1517 207 1466 456 234 134 126 64 67 302 1940 353 1433 826 1261 1236 2166 105 492 317 89 314 92 357 193 1971 346 1669 269 62 31 11 1710 338 10 359 128 19 385 462 322 2101 102 425 318 178 1435 1404 1962 86 355 188 892 2270 1240 1787 300 45 1297 1538 448 1321 29 307 452 1867 268 305 2184 923 82 491 1296 1775 1330 1507 1639 1758 176 34 270 2260 1812 430 354 1591 68 393 454 2046 1739 276 429 527 1039 297 1771 467 1660 465 65 345 2056 411 191 967 489 1723 1943 63 859 488 850 679 1257 991 1001 889 13 2073 1753 2038 189 893 2269 279 2259 494 1246 1430 2171 1115 190 312 98 1995 281 348 1690 1675 1901 2090 485 1180 1722 1384 1300 2100 246 1241 1339 2050 851 1188 1075 84 1385 1262 2265 1212 790 1225 962 1005 1208 69 682 712 1076 930 1408 1027 1072 749 1260 788 954 1112 1181 2255 1235 925 1509 1191 1111 884 1146 971 999 1294 998 1227 1292 1202 1928 8 428 718 1073 789 1932 1942 898 970 1209 236 1310 1312 267 1729 1284 2024 1505 1498 390 1303 1606 1991 453 1196 961 992 1195 1619 1993 1510 1450 1906 860 1283 1486 960 1350 1192 1365 1251 921 1160 1214 1419 1395 927 963 1228 888 1454 1224 928 1354 1148 897 1497 1149 1038 1518 958 1150 1007 1295 1452 1529 1474 856 1204 1249 934 924 1400 1323 1617 956 964 1109 1074 966 1034 1041 1453 1355 1718 1281 1333 1651 1420 1403 1458 1539 388 1399 1078 1334 1447 1388 1488 1362 1522 1421 1402 1348 1239 1423 1405 1530 1552 1471 1625 1367 1043 1394 1415 1366 1531 1422 1436 1413 1448 1569 1470 1446 1410 1462 1363 1482 1673 1560 1425 1393 1549 1357 1337 1707 1369 1389 1407 1631 1449 1501 1706 1709 1500 1503 1643 1575 1708 1661 1504 1610 1557 1346 1548 103 1455 1463 163 1409 1819 1253 1429 1364 1830 1414 1418 1392 391 409 1900 1417 1851 1444 1670 1356 1382 1335 1524 1499 1282 1542 1527 1494 1528 1472 1843 1412 1506 1381 1438 1526 1563 1545 1314 1513 2277 1652 1672 1544 1613 1325 1574 1490 378 1391 1647 350 1642 1477 1683 1655 1692 1644 1568 1703 1713 1778 1593 1681 1590 1795 1512 376 1360 1719 1588 1607 1596 1428 1633 2274 2025 1426 1749 1439 1650 343 420 1461 1411 1473 225 1358 449 384 1437 1304 1628 1416 1694 319 1478 1737 192 1632 1616 1484 1481 1626 460 1390 1611 1492 1580 1603 1831 2222 1551 1638 310 1748 1493 272 1788 1714 1725 1546 1459 1589 1582 1636 1823 1809 2075 175 1847 1583 1698 1839 1818 1797 1872 1614 1724 1841 1834 1773 1654 2263 245 1585 1957 1764 1752 2230 1810 1759 1742 1689 1615 1623 1609 1648 1556 1641 127 1656 1601 1640 1565 1599 1553 1587 344 1630 1577 1586 1755 1659 1536 2261 1532 1727 107 2262 383 1597 1684 1468 1751 1846 2251 242 1840 2244 2197 1761 2238 2232 1786 2177 1917 1785 2185 2243 2233 1790 2209 2097 2055 2139 2231 2082 2182 168 463 2142 1975 2218 2237 2236 2239 2207 2210 1774 1750 2235 563 2234 2070 2201 2212 334 2200 2193 1023 2192 1169 1131 2146 1018 2121 2154 2225 1874 1138 949 988 2175 1936 2120 1883 1060 2088 2123 1089 1858 910 442 519 767 643 637 555 596 636 1895 599 1863 584 2221 1853 243 1833 1814 2155 1927 529 1976 1825 2227 2252 2191 2242 1808 1697 1657 2229 1857 466 1899 1973 1667 1801 2028 500 1730 1754 1822 1726 2216 250 496 1734 1763 2267 2188 209 1767 1796 2214 2241 1765 1747 1770 2266 1832 280 2205 2026 2249 1781 1711 1674 1836 2199 1762 1701 1561 1784 2228 287 1898 2246 1678 1849 157 1712 1704 1612 1845 1776 1700 2247 2271 1800 1804 2180 335 1735 2179 2029 2181 1816 2149 2196 1699 1813 2129 1979 2250 427 2206 1794 2000 531 1807 2165 2211 1799 2190 1792 1166 2194 2220 875 1875 982 2208 2173 2226 2189 1827 2198 2187 2204 2098 278 1693 426 1740 2147 1772 2126 410 1777 1947 1826 2160 1783 2114 2131 2128 1855 2215 2174 2161 2217 2219 2202 2224 2156 2169 1802 1815 2085 1982 1856 2099 2113 2183 2162 1852 1025 944 1948 2186 2072 2004 1886 2020 2223 2130 2084 2111 2112 2032 1978 1988 2037 2096 1960 913 405 915 1361 1926 693 2033 1139 1903 2163 2021 1945 2143 2086 2144 2077 1137 2132 2083 2141 2152 2172 2148 2081 2016 1961 2124 2006 1919 501 2068 1880 370 1865 2035 1996 2047 2010 2178 2015 2127 2168 521 2109 2014 2048 2069 2044 1161 731 1100 1986 2195 908 951 800 987 1878 597 1987 2017 1999 1884 2151 2134 2118 446 2052 2064 1124 1916 408 1869 371 980 1968 1959 2117 2043 1923 2107 1909 445 1879 1912 1934 639 765 2022 406 2018 571 1983 872 2041 2167 2040 2062 2030 368 2078 1102 2110 2095 1896 503 2105 2176 564 841 611 260 1167 621 1876 2034 2042 2066 2045 2079 2051 1955 562 520 2076 1099 2093 2108 1173 1908 528 369 2071 561 1989 694 676 1949 1974 656 1967 1931 523 1331 441 443 575 635 1981 558 2031 607 522 945 1172 498 1860 1063 843 533 2013 842 2067 497 482 560 548 1911 568 1134 1016 476 1997 404 530 513 1893 2092 801 1887 1894 499 574 569 1105 539 1892 692 516 517 638 549 604 1941 602 1907 981 1265 1889 2011 1017 1970 950 1197 464 1925 1353 1920 532 1178 926 2008 634 556 551 1956 1952 333 490 595 2003 565 534 407 502 1969 526 603 444 600 1897 518 2061 1033 675 840 2036 553 1200 524 2001 2039 642 733 1984 620 1864 570 802 2115 640 808 1881 538 914 1891 2012 601 728 804 525 697 1182 1003 1104 2087 1062 1219 609 1024 440 1859 671 515 573 1946 2094 484 566 557 598 2102 2009 2122 477 1862 766 605 1913 481 536 1938 2065 645 2140 572 2049 1980 537 535 2063 559 2080 
    </DataArray>
    <DataArray Name="Density" type="Float32" Format="ascii">