<?xml version="1.0"?>
<VTKFile type="PolyData" version="0.1" byte_order="LittleEndian">
 <PolyData>
  <Piece Name ="WaterBlock" NumberOfPoints="2177" NumberOfVerts="2177">
   <Points>
    <DataArray Name="Position" type="Float32"  NumberOfComponents="3" Format="ascii">
    0.01 0.00288825 0 0.03 0.00288825 0 0.05 0.00288825 0 0.07 0.00288825 0 0.09 0.00288825 0 0.11 0.00288825 0 0.13 0.00288825 0 0.19 0.00288825 0 0.15 0.00288825 0 0.17 0.00288825 0 0.01 0.0428882 0 0.01 0.0228882 0 0.01 0.102888 0 0.01 0.0628882 0 0.01 0.0828882 0 0.01 0.142888 0 0.01 0.122888 0 0.00934218 0.160684 0 0.00975948 0.182131 0 0.05 0.0228882 0 0.03 0.0228882 0 0.03 0.0428882 0 0.05 0.0428882 0 0.09 0.0228882 0 0.07 0.0428882 0 0.07 0.0228882 0 0.09 0.0428882 0 0.05 0.102888 0 0.03 0.102888 0 0.05 0.0628882 0 0.03 0.0828882 0 0.05 0.0828882 0 0.03 0.0628882 0 0.09 0.0628882 0 0.07 0.0628882 0 0.07 0.0828882 0 0.09 0.102888 0 0.09 0.0828882 0 0.07 0.102888 0 0.13 0.0428882 0 0.13 0.0228882 0 0.11 0.0228882 0 0.11 0.0428882 0 0.15 0.0428882 0 0.17 0.0428882 0 0.19 0.0228882 0 0.19 0.0428882 0 0.17 0.0228882 0 0.15 0.0228882 0 0.11 0.102888 0 0.11 0.0628882 0 0.11 0.0828882 0 0.13 0.102888 0 0.13 0.0828882 0 0.13 0.0628882 0 0.17 0.102888 0 0.17 0.0828882 0 0.19 0.0828882 0 0.15 0.102888 0 0.15 0.0828882 0 0.17 0.0628882 0 0.19 0.0628882 0 0.15 0.0628882 0 0.19 0.102888 0 0.05 0.122888 0 0.05 0.142888 0 0.03 0.142888 0 0.03 0.122888 0 0.07 0.142888 0 0.07 0.122888 0 0.09 0.142888 0 0.09 0.122888 0 0.0260628 0.180649 0 0.0329849 0.161775 0 0.0520043 0.162722 0 0.0436673 0.186536 0 0.0740286 0.161264 0 0.0615768 0.179369 0 0.0926552 0.164883 0 0.103895 0.184489 0 0.083111 0.183256 0 0.11 0.142888 0 0.11 0.122888 0 0.13 0.142888 0 0.13 0.122888 0 0.17 0.142888 0 0.15 0.142888 0 0.17 0.122888 0 0.19 0.122888 0 0.15 0.122888 0 0.19 0.142888 0 0.130286 0.16355 0 0.111311 0.161645 0 0.146513 0.180112 0 0.124008 0.182769 0 0.191819 0.162327 0 0.184886 0.185206 0 0.167539 0.182137 0 0.171654 0.161917 0 0.151048 0.161912 0 0.23 0.00288825 0 0.21 0.00288825 0 0.27 0.00288825 0 0.25 0.00288825 0 0.33 0.00288825 0 0.31 0.00288825 0 0.29 0.00288825 0 0.35 0.00288825 0 0.37 0.00288825 0 0.39 0.00288825 0 0.41 0.00288825 0 0.47 0.00288825 0 0.45 0.00288825 0 0.43 0.00288825 0 0.49 0.00288825 0 0.51 0.00288825 0 0.53 0.00288825 0 0.55 0.00288825 0 0.21 0.0428882 0 0.21 0.0228882 0 0.23 0.0428882 0 0.23 0.0228882 0 0.27 0.0228882 0 0.27 0.0428882 0 0.25 0.0228882 0 0.25 0.0428882 0 0.21 0.0628882 0 0.23 0.0828882 0 0.21 0.102888 0 0.23 0.102888 0 0.21 0.0828882 0 0.23 0.0628882 0 0.25 0.0828882 0 0.27 0.0828882 0 0.25 0.102888 0 0.27 0.102888 0 0.25 0.0628882 0 0.27 0.0628882 0 0.31 0.0428882 0 0.31 0.0228882 0 0.33 0.0228882 0 0.29 0.0228882 0 0.33 0.0428882 0 0.29 0.0428882 0 0.37 0.0428882 0 0.35 0.0228882 0 0.35 0.0428882 0 0.37 0.0228882 0 0.29 0.0628882 0 0.31 0.0828882 0 0.31 0.0628882 0 0.33 0.0628882 0 0.33 0.102888 0 0.33 0.0828882 0 0.31 0.102888 0 0.29 0.0828882 0 0.29 0.102888 0 0.35 0.102888 0 0.37 0.0628882 0 0.35 0.0628882 0 0.35 0.0828882 0 0.37 0.0828882 0 0.37 0.102888 0 0.21 0.142888 0 0.23 0.142888 0 0.23 0.122888 0 0.21 0.122888 0 0.25 0.142888 0 0.27 0.122888 0 0.25 0.122888 0 0.27 0.142888 0 0.234616 0.192489 0 0.233109 0.166055 0 0.201849 0.179641 0 0.214106 0.160659 0 0.219635 0.183726 0 0.286887 0.182509 0 0.249557 0.161507 0 0.250249 0.183341 0 0.268886 0.180678 0 0.272006 0.161697 0 0.29 0.142888 0 0.33 0.142888 0 0.31 0.122888 0 0.31 0.142888 0 0.29 0.122888 0 0.33 0.122888 0 0.35 0.122888 0 0.37 0.122888 0 0.37 0.142888 0 0.35 0.142888 0 0.323082 0.184482 0 0.331543 0.163108 0 0.312397 0.163093 0 0.29302 0.161885 0 0.305846 0.184286 0 0.351078 0.16135 0 0.371826 0.163019 0 0.379703 0.182172 0 0.342848 0.183045 0 0.360498 0.183276 0 0.39 0.0428882 0 0.39 0.0228882 0 0.41 0.0228882 0 0.41 0.0428882 0 0.45 0.0428882 0 0.43 0.0228882 0 0.47 0.0428882 0 0.45 0.0228882 0 0.47 0.0228882 0 0.43 0.0428882 0 0.41 0.0628882 0 0.41 0.0828882 0 0.39 0.102888 0 0.41 0.102888 0 0.39 0.0828882 0 0.39 0.0628882 0 0.47 0.0828882 0 0.45 0.102888 0 0.43 0.0828882 0 0.47 0.102888 0 0.43 0.0628882 0 0.47 0.0628882 0 0.45 0.0628882 0 0.45 0.0828882 0 0.43 0.102888 0 0.49 0.0228882 0 0.51 0.0428882 0 0.49 0.0428882 0 0.51 0.0228882 0 0.55 0.0228882 0 0.53 0.0228882 0 0.53 0.0428882 0 0.55 0.0428882 0 0.51 0.0628882 0 0.49 0.0628882 0 0.51 0.0828882 0 0.49 0.102888 0 0.51 0.102888 0 0.49 0.0828882 0 0.53 0.0628882 0 0.55 0.102888 0 0.55 0.0828882 0 0.53 0.0828882 0 0.53 0.102888 0 0.55 0.0628882 0 0.41 0.122888 0 0.39 0.122888 0 0.41 0.142888 0 0.39 0.142888 0 0.45 0.142888 0 0.43 0.122888 0 0.47 0.142888 0 0.47 0.122888 0 0.45 0.122888 0 0.43 0.142888 0 0.391136 0.16273 0 0.41022 0.16284 0 0.402235 0.183721 0 0.419522 0.186467 0 0.468375 0.163037 0 0.438568 0.182381 0 0.448212 0.161889 0 0.459807 0.181701 0 0.428551 0.163456 0 0.51 0.142888 0 0.51 0.122888 0 0.49 0.142888 0 0.49 0.122888 0 0.53 0.142888 0 0.55 0.142888 0 0.55 0.122888 0 0.53 0.122888 0 0.499068 0.184518 0 0.488007 0.16247 0 0.479671 0.183332 0 0.506754 0.163192 0 0.516938 0.185972 0 0.525074 0.163055 0 0.55696 0.179047 0 0.536537 0.182885 0 0.544122 0.162412 0 0.00718396 0.203928 0 0.00752776 0.232248 0 0.00765912 0.259483 0 0.00988734 0.331859 0 0.0104321 0.293086 0 0.010304 0.312649 0 0.00979581 0.36853 0 0.0541869 0.234086 0 0.0401255 0.220541 0 0.0262344 0.203702 0 0.0507673 0.203513 0 0.0216593 0.223406 0 0.100204 0.235792 0 0.0712109 0.199218 0 0.0947989 0.201457 0 0.0776149 0.235324 0 0.0664169 0.217106 0 0.0891845 0.217861 0 0.0412484 0.286468 0 0.0333541 0.26871 0 0.0158431 0.276511 0 0.0524302 0.266337 0 0.0387158 0.245155 0 0.0230415 0.248138 0 0.0857145 0.251727 0 0.0641572 0.284731 0 0.0938106 0.273571 0 0.0744653 0.271799 0 0.0633635 0.251642 0 0.13878 0.19859 0 0.111934 0.219275 0 0.131117 0.222424 0 0.138671 0.240641 0 0.149611 0.218537 0 0.11907 0.202064 0 0.187165 0.225673 0 0.165266 0.228645 0 0.159218 0.201209 0 0.176507 0.206598 0 0.195123 0.20632 0 0.119221 0.242728 0 0.106028 0.258431 0 0.133558 0.28703 0 0.126133 0.263232 0 0.143239 0.261542 0 0.11438 0.280981 0 0.151112 0.282018 0 0.182501 0.244764 0 0.168941 0.288001 0 0.181256 0.264597 0 0.190297 0.281085 0 0.159553 0.244304 0 0.163029 0.264488 0 0.0457243 0.312499 0 0.0288546 0.323226 0 0.0296489 0.299612 0 0.0826827 0.304695 0 0.0605561 0.302197 0 0.0932125 0.291589 0 0.0889188 0.327436 0 0.0708913 0.319837 0 0.103741 0.312683 0 0.0305927 0.378076 0 0.0551082 0.356338 0 0.0384601 0.363884 0 0.047616 0.333551 0 0.0135926 0.351674 0 0.0301061 0.345148 0 0.0641755 0.33824 0 0.0958727 0.343596 0 0.0618455 0.374894 0 0.0896996 0.364522 0 0.0770196 0.353405 0 0.113412 0.330917 0 0.12784 0.319908 0 0.116548 0.299539 0 0.144601 0.329888 0 0.140921 0.306111 0 0.189248 0.316441 0 0.165536 0.324922 0 0.179683 0.301472 0 0.158057 0.307084 0 0.133937 0.36351 0 0.109693 0.365083 0 0.140456 0.345976 0 0.118282 0.348761 0 0.180916 0.334393 0 0.176756 0.366556 0 0.190086 0.353387 0 0.164081 0.345973 0 0.157126 0.362419 0 0.0101679 0.423564 0 0.0114878 0.404377 0 0.00993059 0.441754 0 0.00832073 0.508952 0 0.00813347 0.477799 0 0.00905313 0.531371 0 0.0105203 0.552674 0 0.0299486 0.420246 0 0.0130417 0.387341 0 0.0510819 0.412176 0 0.0345157 0.401089 0 0.0495119 0.389823 0 0.101098 0.412967 0 0.0758363 0.417399 0 0.0691734 0.400352 0 0.0910822 0.397139 0 0.0771324 0.381888 0 0.0421835 0.465773 0 0.0145437 0.460922 0 0.0558754 0.449695 0 0.0293422 0.449963 0 0.0403246 0.434925 0 0.0931411 0.463443 0 0.0747287 0.462422 0 0.0782361 0.443934 0 0.0606468 0.430798 0 0.0900568 0.429772 0 0.115904 0.399184 0 0.146292 0.38041 0 0.104396 0.382856 0 0.147124 0.424178 0 0.127019 0.417454 0 0.139335 0.402335 0 0.126979 0.382721 0 0.179823 0.405938 0 0.164083 0.421221 0 0.157305 0.400003 0 0.187986 0.388065 0 0.168058 0.384913 0 0.132358 0.43938 0 0.104972 0.446726 0 0.113184 0.430687 0 0.132578 0.457556 0 0.11331 0.463027 0 0.168997 0.467822 0 0.184102 0.426755 0 0.15097 0.448386 0 0.18256 0.452194 0 0.166865 0.442519 0 0.0183618 0.496308 0 0.0364384 0.509619 0 0.0294838 0.480031 0 0.0449123 0.492656 0 0.0957787 0.502507 0 0.0708042 0.488039 0 0.0888429 0.484955 0 0.0793208 0.512461 0 0.059652 0.503995 0 0.0587531 0.473655 0 0.0289591 0.548054 0 0.0430745 0.554416 0 0.0455229 0.528053 0 0.0264286 0.525757 0 0.0630865 0.563627 0 0.0645976 0.524069 0 0.059942 0.544369 0 0.0838281 0.556257 0 0.100048 0.540048 0 0.0993888 0.521922 0 0.0814407 0.537437 0 0.107781 0.483696 0 0.123185 0.496605 0 0.130784 0.477853 0 0.138879 0.516253 0 0.118009 0.51275 0 0.144924 0.491082 0 0.151649 0.472204 0 0.176433 0.506829 0 0.194047 0.492799 0 0.169908 0.487322 0 0.157061 0.505234 0 0.189077 0.475423 0 0.109498 0.558257 0 0.123546 0.5314 0 0.144078 0.547468 0 0.125417 0.548744 0 0.183701 0.546741 0 0.192585 0.530669 0 0.163517 0.544715 0 0.151098 0.527705 0 0.173053 0.524595 0 0.219158 0.229325 0 0.227519 0.211975 0 0.210874 0.205013 0 0.237361 0.23387 0 0.202914 0.233881 0 0.274935 0.224106 0 0.25575 0.231158 0 0.249371 0.212489 0 0.261357 0.202503 0 0.281184 0.203194 0 0.236485 0.253519 0 0.20101 0.256792 0 0.208824 0.276024 0 0.218283 0.254014 0 0.229957 0.274437 0 0.267871 0.272174 0 0.282356 0.262864 0 0.270597 0.244729 0 0.246933 0.277231 0 0.255205 0.256639 0 0.286975 0.285995 0 0.296862 0.207358 0 0.314905 0.205569 0 0.326526 0.227065 0 0.290417 0.232585 0 0.307296 0.227705 0 0.333902 0.205409 0 0.353119 0.202632 0 0.345657 0.222645 0 0.369109 0.224588 0 0.358583 0.239935 0 0.372508 0.207185 0 0.332238 0.27175 0 0.318629 0.246645 0 0.296658 0.251949 0 0.324704 0.28827 0 0.303537 0.279869 0 0.311695 0.263678 0 0.356094 0.286197 0 0.338797 0.244629 0 0.362769 0.268269 0 0.373874 0.250785 0 0.345219 0.262246 0 0.204304 0.296861 0 0.22494 0.325536 0 0.224027 0.294085 0 0.209693 0.314554 0 0.236712 0.305699 0 0.281999 0.312462 0 0.245723 0.325542 0 0.260482 0.314101 0 0.269585 0.333455 0 0.273 0.294681 0 0.252084 0.295258 0 0.237531 0.36222 0 0.
[...]
   <PointData  Vectors="vector">
    <DataArray Name="SortedParticle_ID" type="Int32" Format="ascii">
    0 1 2 3 4 5 6 7 8 9 10 11 12 13 14 15 16 17 18 19 20 21 22 23 24 25 26 27 28 29 30 31 32 33 34 35 36 37 38 39 40 41 42 43 44 45 46 47 48 49 50 51 52 53 54 55 56 57 58 59 60 61 62 63 64 65 66 67 68 69 70 71 72 73 74 75 76 77 78 79 80 81 82 83 84 85 86 87 88 89 90 91 92 93 94 95 96 97 98 99 100 101 102 103 104 105 106 107 108 109 110 111 112 113 114 115 116 117 118 119 120 121 122 123 124 125 126 127 128 129 130 131 132 133 134 135 136 137 138 139 140 141 142 143 144 145 146 147 148 149 150 151 152 153 154 155 156 157 158 159 160 161 162 163 164 165 166 167 168 169 170 171 172 173 174 175 176 177 178 179 180 181 182 183 184 185 186 187 188 189 190 191 192 193 194 195 196 197 198 199 200 201 202 203 204 205 206 207 208 209 210 211 212 213 214 215 216 217 218 219 220 221 222 223 224 225 226 227 228 229 230 231 232 233 234 235 236 237 238 239 240 241 242 243 244 245 246 247 248 249 250 251 252 253 254 255 256 257 258 259 260 261 262 263 264 265 266 267 268 269 270 271 272 273 274 275 276 277 278 279 280 281 282 283 284 285 286 287 288 289 290 291 292 293 294 295 296 297 298 299 300 301 302 303 304 305 306 307 308 309 310 311 312 313 314 315 316 317 318 319 320 321 322 323 324 325 326 327 328 329 330 331 332 333 334 335 336 337 338 339 340 341 342 343 344 345 346 347 348 349 350 351 352 353 354 355 356 357 358 359 360 361 362 363 364 365 366 367 368 369 370 371 372 373 374 375 376 377 378 379 380 381 382 383 384 385 386 387 388 389 390 391 392 393 394 395 396 397 398 399 400 401 402 403 404 405 406 407 408 409 410 411 412 413 414 415 416 417 418 419 420 421 422 423 424 425 426 427 428 429 430 431 432 433 434 435 436 437 438 439 440 441 442 443 444 445 446 447 448 449 450 451 452 453 454 455 456 457 458 459 460 461 462 463 464 465 466 467 468 469 470 471 472 473 474 475 476 477 478 479 480 481 482 483 484 485 486 487 488 489 490 491 492 493 494 495 496 497 498 499 500 501 502 503 504 505 506 507 508 509 510 511 512 513 514 515 516 517 518 519 520 521 522 523 524 525 526 527 528 529 530 531 532 533 534 535 536 537 538 539 540 541 542 543 544 545 546 547 548 549 550 551 552 553 554 555 556 557 558 559 560 561 562 563 564 565 566 567 568 569 570 571 572 573 574 575 576 577 578 579 580 581 582 583 584 585 586 587 588 589 590 591 592 593 594 595 596 597 598 599 600 601 602 603 604 605 606 607 608 609 610 611 612 613 614 615 616 617 618 619 620 621 622 623 624 625 626 627 628 629 630 631 632 633 634 635 636 637 638 639 640 641 642 643 644 645 646 647 648 649 650 651 652 653 654 655 656 657 658 659 660 661 662 663 664 665 666 667 668 669 670 671 672 673 674 675 676 677 678 679 680 681 682 683 684 685 686 687 688 689 690 691 692 693 694 695 696 697 698 699 700 701 702 703 704 705 706 707 708 709 710 711 712 713 714 715 716 717 718 719 720 721 722 723 724 725 726 727 728 729 730 731 732 733 734 735 736 737 738 739 740 741 742 743 744 745 746 747 748 749 750 751 752 753 754 755 756 757 758 759 760 761 762 763 764 765 766 767 768 769 770 771 772 773 774 775 776 777 778 779 780 781 782 783 784 785 786 787 788 789 790 791 792 793 794 795 796 797 798 799 800 801 802 803 804 805 806 807 808 809 810 811 812 813 814 815 816 817 818 819 820 821 822 823 824 825 826 827 828 829 830 831 832 833 834 835 836 837 838 839 840 841 842 843 844 845 846 847 848 849 850 851 852 853 854 855 856 857 858 859 860 861 862 863 864 865 866 867 868 869 870 871 872 873 874 875 876 877 878 879 880 881 882 883 884 885 886 887 888 889 890 891 892 893 894 895 896 897 898 899 900 901 902 903 904 905 906 907 908 909 910 911 912 913 914 915 916 917 918 919 920 921 922 923 924 925 926 927 928 929 930 931 932 933 934 935 936 937 938 939 940 941 942 943 944 945 946 947 948 949 950 951 952 953 954 955 956 957 958 959 960 961 962 963 964 965 966 967 968 969 970 971 972 973 974 975 976 977 978 979 980 981 982 983 984 985 986 987 988 989 990 991 992 993 994 995 996 997 998 999 1000 1001 1002 1003 1004 1005 1006 1007 1008 1009 1010 1011 1012 1013 1014 1015 1016 1017 1018 1019 1020 1021 1022 1023 1024 1025 1026 1027 1028 1029 1030 1031 1032 1033 1034 1035 1036 1037 1038 1039 1040 1041 1042 1043 1044 1045 1046 1047 1048 1049 1050 1051 1052 1053 1054 1055 1056 1057 1058 1059 1060 1061 1062 1063 1064 1065 1066 1067 1068 1069 1070 1071 1072 1073 1074 1075 1076 1077 1078 1079 1080 1081 1082 1083 1084 1085 1086 1087 1088 1089 1090 1091 1092 1093 1094 1095 1096 1097 1098 1099 1100 1101 1102 1103 1104 1105 1106 1107 1108 1109 1110 1111 1112 1113 1114 1115 1116 1117 1118 1119 1120 1121 1122 1123 1124 1125 1126 1127 1128 1129 1130 1131 1132 1133 1134 1135 1136 1137 1138 1139 1140 1141 1142 1143 1144 1145 1146 1147 1148 1149 1150 1151 1152 1153 1154 1155 1156 1157 1158 1159 1160 1161 1162 1163 1164 1165 1166 1167 1168 1169 1170 1171 1172 1173 1174 1175 1176 1177 1178 1179 1180 1181 1182 1183 1184 1185 1186 1187 1188 1189 1190 1191 1192 1193 1194 1195 1196 1197 1198 1199 1200 1201 1202 1203 1204 1205 1206 1207 1208 1209 1210 1211 1212 1213 1214 1215 1216 1217 1218 1219 1220 1221 1222 1223 1224 1225 1226 1227 1228 1229 1230 1231 1232 1233 1234 1235 1236 1237 1238 1239 1240 1241 1242 1243 1244 1245 1246 1247 1248 1249 1250 1251 1252 1253 1254 1255 1256 1257 1258 1259 1260 1261 1262 1263 1264 1265 1266 1267 1268 1269 1270 1271 1272 1273 1274 1275 1276 1277 1278 1279 1280 1281 1282 1283 1284 1285 1286 1287 1288 1289 1290 1291 1292 1293 1294 1295 1296 1297 1298 1299 1300 1301 1302 1303 1304 1305 1306 1307 1308 1309 1310 1311 1312 1313 1314 1315 1316 1317 1318 1319 1320 1321 1322 1323 1324 1325 1326 1327 1328 1329 1330 1331 1332 1333 1334 1335 1336 1337 1338 1339 1340 1341 1342 1343 1344 1345 1346 1347 1348 1349 1350 1351 1352 1353 1354 1355 1356 1357 1358 1359 1360 1361 1362 1363 1364 1365 1366 1367 1368 1369 1370 1371 1372 1373 1374 1375 1376 1377 1378 1379 1380 1381 1382 1383 1384 1385 1386 1387 1388 1389 1390 1391 1392 1393 1394 1395 1396 1397 1398 1399 1400 1401 1402 1403 1404 1405 1406 1407 1408 1409 1410 1411 1412 1413 1414 1415 1416 1417 1418 1419 1420 1421 1422 1423 1424 1425 1426 1427 1428 1429 1430 1431 1432 1433 1434 1435 1436 1437 1438 1439 1440 1441 1442 1443 1444 1445 1446 1447 1448 1449 1450 1451 1452 1453 1454 1455 1456 1457 1458 1459 1460 1461 1462 1463 1464 1465 1466 1467 1468 1469 1470 1471 1472 1473 1474 1475 1476 1477 1478 1479 1480 1481 1482 1483 1484 1485 1486 1487 1488 1489 1490 1491 1492 1493 1494 1495 1496 1497 1498 1499 1500 1501 1502 1503 1504 1505 1506 1507 1508 1509 1510 1511 1512 1513 1514 1515 1516 1517 1518 1519 1520 1521 1522 1523 1524 1525 1526 1527 1528 1529 1530 1531 1532 1533 1534 1535 1536 1537 1538 1539 1540 1541 1542 1543 1544 1545 1546 1547 1548 1549 1550 1551 1552 1553 1554 1555 1556 1557 1558 1559 1560 1561 1562 1563 1564 1565 1566 1567 1568 1569 1570 1571 1572 1573 1574 1575 1576 1577 1578 1579 1580 1581 1582 1583 1584 1585 1586 1587 1588 1589 1590 1591 1592 1593 1594 1595 1596 1597 1598 1599 1600 1601 1602 1603 1604 1605 1606 1607 1608 1609 1610 1611 1612 1613 1614 1615 1616 1617 1618 1619 1620 1621 1622 1623 1624 1625 1626 1627 1628 1629 1630 1631 1632 1633 1634 1635 1636 1637 1638 1639 1640 1641 1642 1643 1644 1645 1646 1647 1648 1649 1650 1651 1652 1653 1654 1655 1656 1657 1658 1659 1660 1661 1662 1663 1664 1665 1666 1667 1668 1669 1670 1671 1672 1673 1674 1675 1676 1677 1678 1679 1680 1681 1682 1683 1684 1685 1686 1687 1688 1689 1690 1691 1692 1693 1694 1695 1696 1697 1698 1699 1700 1701 1702 1703 1704 1705 1706 1707 1708 1709 1710 1711 1712 1713 1714 1715 1716 1717 1718 1719 1720 1721 1722 1723 1724 1725 1726 1727 1728 1729 1730 1731 1732 1733 1734 1735 1736 1737 1738 1739 1740 1741 1742 1743 1744 1745 1746 1747 1748 1749 1750 1751 1752 1753 1754 1755 1756 1757 1758 1759 1760 1761 1762 1763 1764 1765 1766 1767 1768 1769 1770 1771 1772 1773 1774 1775 1776 1777 1778 1779 1780 1781 1782 1783 1784 1785 1786 1787 1788 1789 1790 1791 1792 1793 1794 1795 1796 1797 1798 1799 1800 1801 1802 1803 1804 1805 1806 1807 1808 1809 1810 1811 1812 1813 1814 1815 1816 1817 1818 1819 1820 1821 1822 1823 1824 1825 1826 1827 1828 1829 1830 1831 1832 1833 1834 1835 1836 1837 1838 1839 1840 1841 1842 1843 1844 1845 1846 1847 1848 1849 1850 1851 1852 1853 1854 1855 1856 1857 1858 1859 1860 1861 1862 1863 1864 1865 1866 1867 1868 1869 1870 1871 1872 1873 1874 1875 1876 1877 1878 1879 1880 1881 1882 1883 1884 1885 1886 1887 1888 1889 1890 1891 1892 1893 1894 1895 1896 1897 1898 1899 1900 1901 1902 1903 1904 1905 1906 1907 1908 1909 1910 1911 1912 1913 1914 1915 1916 1917 1918 1919 1920 1921 1922 1923 1924 1925 1926 1927 1928 1929 1930 1931 1932 1933 1934 1935 1936 1937 1938 1939 1940 1941 1942 1943 1944 1945 1946 1947 1948 1949 1950 1951 1952 1953 1954 1955 1956 1957 1958 1959 1960 1961 1962 1963 1964 1965 1966 1967 1968 1969 1970 1971 1972 1973 1974 1975 1976 1977 1978 1979 1980 1981 1982 1983 1984 1985 1986 1987 1988 1989 1990 1991 1992 1993 1994 1995 1996 1997 1998 1999 2000 2001 2002 2003 2004 2005 2006 2007 2008 2009 2010 2011 2012 2013 2014 2015 2016 2017 2018 2019 2020 2021 2022 2023 2024 2025 2026 2027 2028 2029 2030 2031 2032 2033 2034 2035 2036 2037 2038 2039 2040 2041 2042 2043 2044 2045 2046 2047 2048 2049 2050 2051 2052 2053 2054 2055 2056 2057 2058 2059 2060 2061 2062 2063 2064 2065 2066 2067 2068 2069 2070 2071 2072 2073 2074 2075 2076 2077 2078 2079 2080 2081 2082 2083 2084 2085 2086 2087 2088 2089 2090 2091 2092 2093 2094 2095 2096 2097 2098 2099 2100 2101 2102 2103 2104 2105 2106 2107 2108 2109 2110 2111 2112 2113 2114 2115 2116 2117 2118 2119 2120 2121 2122 2123 2124 2125 2126 2127 2128 2129 2130 2131 2132 2133 2134 2135 2136 2137 2138 2139 2140 2141 2142 2143 2144 2145 2146 2147 2148 2149 2150 2151 2152 2153 2154 2155 2156 2157 2158 2159 2160 2161 2162 2163 2164 2165 2166 2167 2168 2169 2170 2171 2172 2173 2174 2175 2176 
    </DataArray>
    <DataArray Name="OriginalID" type="Int32" Format="ascii">
    6 42 78 114 150 186 222 330 258 294 0 7 3 1 2 5 4 1252 455 79 43 36 72 151 108 115 144 75 39 73 38 74 37 145 109 110 147 146 111 216 223 187 180 252 288 331 324 295 259 183 181 182 219 218 217 291 290 326 255 254 289 325 253 327 76 77 41 40 113 112 149 148 336 776 1069 459 1276 461 814 887 967 185 184 221 220 293 257 292 328 256 329 883 932 1338 1031 752 889 863 1272 1508 402 366 474 438 582 546 510 618 654 690 726 834 798 762 870 906 942 978 360 367 396 403 475 468 439 432 361 398 363 399 362 397 434 470 435 471 433 469 540 547 583 511 576 504 648 619 612 655 505 542 541 577 579 578 543 506 507 615 649 613 614 650 651 365 401 400 364 437 472 436 473 1257 882 854 848 1244 818 919 786 820 748 509 581 544 545 508 580 616 652 653 617 1258 1496 1216 931 1301 1185 1070 780 753 997 684 691 727 720 792 763 828 799 835 756 721 722 687 723 686 685 830 795 758 831 757 829 793 794 759 871 900 864 907 979 943 936 972 901 865 902 867 903 866 937 975 974 938 939 973 724 688 725 689 797 760 833 832 796 761 1232 777 916 861 810 1298 952 1211 1255 905 904 869 868 941 977 976 940 1250 1066 1079 1217 849 1028 1233 858 846 339 1829 1924 1844 493 1664 323 465 483 1635 296 347 488 215 431 1812 2056 411 345 247 1555 65 191 1820 430 1731 1745 68 1660 84 1723 489 1771 467 2265 281 527 991 1001 1039 1943 297 354 2260 1758 1591 311 454 270 393 462 429 34 172 2248 374 265 66 1977 308 387 495 142 129 226 173 1687 71 132 1806 2164 25 1958 486 1870 1910 1998 176 269 337 1669 62 208 306 162 309 197 158 159 31 60 2158 351 1805 342 381 395 386 284 382 120 2125 231 56 2203 249 95 1994 93 1757 2023 349 212 2133 50 2137 2135 27 61 123 99 2089 47 12 169 122 21 23 177 136 26 166 51 205 125 91 52 131 155 53 286 1992 1871 450 1930 241 20 1954 1990 2002 165 2136 140 1933 1890 240 2157 202 313 97 170 196 121 55 232 156 85 2159 235 83 119 48 201 167 277 2104 2150 16 17 88 154 138 859 850 1151 789 1928 712 679 682 1114 1385 485 494 276 63 1995 930 1076 1208 1901 1072 1146 851 1562 717 1262 1187 1036 1213 680 1267 1280 1738 884 1004 1188 1112 1027 1225 788 790 1075 996 1212 2046 322 279 189 491 2090 1739 2269 2101 1722 1690 193 11 13 32 357 102 92 1675 359 1710 385 1181 1384 1191 69 1202 1005 1408 1111 999 1867 10 348 428 82 2259 1180 970 267 1073 971 718 1303 1266 1396 819 933 935 857 1206 993 965 783 781 885 1201 1042 1215 962 749 1222 920 1218 755 1077 1374 1029 1279 1064 784 1245 1193 1441 955 1248 918 817 1352 1071 929 827 886 1198 719 1274 1676 1058 1247 1324 1184 998 925 954 1235 2255 1486 1509 1260 860 1395 1294 963 1292 1227 960 1365 1228 927 1192 1214 896 1350 1283 1160 1163 1096 983 2272 1251 921 1485 897 1171 1174 1497 1270 1132 1922 1768 1168 143 199 303 90 160 346 18 1905 314 126 1971 46 24 58 96 1861 104 130 179 133 64 67 206 2038 128 98 893 1115 8 1932 236 1241 86 19 302 355 338 317 2073 1246 312 2184 1942 1753 94 1902 233 49 54 134 2027 70 124 118 87 1918 1821 321 195 282 274 137 44 59 352 116 2166 89 203 307 29 268 45 305 246 353 228 57 230 266 105 1775 492 2171 453 1196 928 1034 1224 888 1474 1354 1204 992 1074 1041 964 1209 1718 1419 1454 1453 934 856 1355 1038 895 1149 1518 1148 791 947 1383 1736 958 876 1239 1452 1007 1323 924 1322 1150 1275 1186 1464 966 390 1281 2024 1529 1362 1333 956 1447 1109 2050 1195 452 1078 961 2100 1530 1403 1651 1423 1363 1522 1617 1348 1249 1476 1295 1366 1432 1462 1400 1364 1418 1455 1482 1488 1388 1394 1531 1560 1043 1446 1014 1050 1158 1086 1122 1051 1015 1044 1008 1087 1123 1080 1152 1116 1159 1009 1047 1010 1011 1046 1045 1155 1118 1117 1119 1083 1081 1153 1154 1082 1013 1048 1049 1012 1120 1085 1157 1121 1156 1084 881 1205 1242 1375 852 1065 1326 1091 1054 785 1059 1888 2053 1646 1207 2264 1950 1056 1170 1525 1686 1020 2138 1026 1127 1939 1951 986 1125 2253 1136 1135 1165 1095 839 874 1094 948 1756 1605 1088 2153 1061 1535 2213 1053 1093 1176 2245 1098 1090 1130 911 2275 1543 1264 1838 1744 1055 912 877 984 1658 1885 1019 1128 1164 1595 1431 1286 1092 1798 1126 946 1057 1344 1629 1915 1319 1424 1345 1443 1573 1514 1728 1343 1370 1021 1448 1422 1407 1378 1413 1369 1457 1549 1621 1709 1581 1550 1665 1600 1436 1162 1741 1511 1717 1760 1523 1479 1653 1547 1491 1782 1129 1666 1645 1691 1769 1133 1811 1570 985 1598 1803 1679 1680 1594 1604 1097 1695 1743 1637 1578 1590 2273 1572 1668 1567 1592 1779 1848 1566 1789 1052 1671 1720 1842 2256 1702 1733 2268 2258 1835 1682 1715 1850 1834 1914 2221 1828 1846 2240 2254 2252 1773 1724 1841 2232 1853 1814 1761 2238 1833 2244 2251 2243 2233 2237 1840 2231 2235 2197 2182 2210 2234 2236 2209 2192 2239 2225 2121 2200 2201 2207 1792 1018 2173 2165 2212 2211 1799 301 28 161 416 1705 413 1608 263 415 1921 1732 227 2091 100 2145 1965 380 341 1721 379 2119 1868 80 152 377 2103 210 164 447 81 174 271 1793 2074 248 139 1854 204 394 135 106 1904 101 451 198 239 2058 1307 1377 211 315 1964 356 373 141 487 2054 298 422 358 1766 316 1746 1780 1483 457 224 372 1966 213 423 375 2170 1387 2059 1368 414 1873 417 424 1406 421 30 283 33 35 285 200 275 238 273 14 237 153 320 214 2057 2060 251 117 229 9 2116 299 318 458 194 389 2007 923 892 188 1962 15 244 1935 1929 456 1261 1430 1297 448 1507 1330 1321 1236 1963 261 2106 1837 1944 1985 1427 412 392 234 264 171 1953 419 1937 22 340 262 425 418 826 2005 1940 207 1312 1466 300 1240 1639 332 178 1517 2270 1433 1404 1296 190 1538 1435 1787 1310 1498 1420 1405 1399 1409 1334 1552 1471 1421 1339 1300 1606 898 1463 1505 1470 1367 1429 1499 1410 1402 1819 1392 1425 1414 1356 1415 1830 1528 1438 1282 1472 1358 1412 1382 1335 1575 1357 1670 1729 1991 1450 1619 1284 1510 1458 163 1381 409 1253 1417 1993 1539 1906 1625 1900 388 391 1851 1843 1304 1439 1473 1411 1444 1542 1707 1527 1504 1503 1524 1494 225 1506 449 1390 384 1437 1557 1337 1393 1389 1569 1610 1500 1541 1449 1631 1501 1673 1643 1706 1708 1661 1548 1574 1346 343 1545 1477 1513 1624 1563 1314 1526 2277 1544 1568 1615 1579 1534 1533 1360 1609 1642 1795 1683 1616 1633 1565 1481 1391 1325 1426 1650 1647 1719 1416 1694 1749 1490 378 103 350 460 1737 420 2025 1461 1512 1626 1484 1478 376 1640 1599 1597 1587 1632 1596 1428 1628 1580 319 1607 383 1492 1468 2276 1655 1652 1692 1672 1613 1681 1589 1576 1703 1588 1611 1778 192 2274 1623 1556 1577 1601 1546 344 1684 310 1593 1636 1713 1644 1716 1627 1791 1638 1602 1824 1818 2222 1603 1872 1823 1648 1582 1765 1689 1839 1797 1742 1630 1585 1586 1659 1553 1727 1656 1641 127 1751 1532 1536 2263 1493 1551 304 1698 1748 1583 1459 1831 1614 1654 272 1752 2230 1788 1847 1714 2075 1725 245 1809 2257 1688 1759 1649 1697 1657 1810 1711 1677 1674 1832 2266 1747 1561 1845 2271 280 1781 1701 2249 2242 1808 2191 2229 1976 1927 243 1857 157 2241 1612 1678 1813 2205 2026 1899 1776 1898 1849 1762 1764 2261 1957 1770 175 1836 1704 1784 2247 250 1804 1755 2199 107 2262 1726 1783 1796 1740 2250 1700 1767 209 1754 1693 2214 1667 1735 1763 1699 1822 2267 2216 1734 1917 1786 2155 466 242 1816 2070 2208 463 1774 2029 287 1790 529 2227 334 2185 2179 2193 427 2000 2161 1826 1807 2190 2189 2226 2219 2156 2187 2217 1855 1777 2174 278 2206 1947 2224 1802 2202 2215 2169 2147 1785 2246 2218 1730 2228 1750 1712 2055 2082 1975 500 2177 2097 496 1825 168 2188 2149 2028 1772 1979 2142 410 426 2141 1815 1800 2196 2160 1794 1801 531 563 2139 1973 2181 2126 2180 1169 2146 2120 1023 1138 1166 2204 982 2154 1875 2220 1025 2084 2175 2162 988 2088 1886 1874 1883 1060 1089 1852 2123 2183 2178 1903 2086 1137 2163 949 944 1161 1131 2117 908 1923 1986 1948 1884 2078 1100 2052 693 2042 1936 800 913 405 765 1983 1912 2077 2017 406 1878 2033 611 562 520 1858 731 872 621 841 564 910 1967 951 915 1361 926 808 697 594 844 968 625 1068 2112 2198 2098 875 1827 2111 2020 2194 2037 2132 2172 2124 2223 2152 1978 1961 2047 2081 2130 2016 2083 2096 1960 2004 2072 1988 1926 2143 2186 2168 2127 2195 2032 1945 1880 1865 2021 2134 521 1999 2015 2064 370 2148 2068 2128 2109 1856 2099 2035 2006 2014 1996 2129 335 2114 2131 1982 2085 2113 1919 446 1869 2048 2069 1916 2022 1968 1959 1909 371 408 2010 501 2044 528 445 503 1896 1879 2144 2107 2151 2018 1987 1167 980 2041 2045 2167 1124 2095 2118 2176 2105 1099 2071 2093 2062 1173 2076 2110 2079 2051 571 1172 2034 1989 2013 676 519 635 441 656 1981 575 442 522 482 558 555 1911 2040 260 2043 369 2030 2066 368 2108 1974 1955 1931 533 523 1876 2031 498 561 443 2067 1949 548 1134 481 557 2102 2122 560 2009 497 1862 2065 537 536 1860 694 1908 643 568 1063 987 843 766 597 596 605 598 1895 530 566 574 1893 607 1863 1925 637 1934 639 1139 1331 1102 767 842 945 801 513 602 636 534 535 599 1941 645 638 1016 1980 2080 584 1907 2063 2049 1887 2008 559 2011 484 516 1946 464 2140 1970 407 2003 476 572 565 2039 556 1997 1889 502 1984 404 600 1897 524 1952 2001 2115 1969 1913 1353 477 1938 569 1017 490 549 692 604 1178 532 517 642 526 525 2092 1920 1956 634 1894 601 2036 570 2087 333 2061 499 444 2012 595 518 1881 658 440 2094 515 2019 539 1105 1200 804 1892 1972 1062 950 1197 840 512 1140 603 609 573 553 478 1219 671 640 610 675 1175 989 1864 538 733 480 1182 728 585 659 1003 1866 1024 878 1177 479 981 914 1104 608 1859 514 729 1891 1265 620 1022 802 953 606 837 551 735 1882 550 660 768 589 1877 1033 836 764 805 623 730 770 1340 622 661 626 909 1189 657 587 873 624 1106 695 554 803 593 1540 586 588 1299 670 666 734 1000 700 633 669 806 1144 663 772 703 591 1320 1142 737 969 590 1288 1243 1108 736 1256 699 771 1199 708 706 990 1259 704 664 1210 1269 745 1179 1373 711 1035 845 667 1147 879 813 1221 891 773 1311 1194 698 742 774 1349 807 1277 1030 702 709 705 628 710 1289 1190 1318 741 743 683 1067 1341 1347 739 1040 847 994 862 1037 673 716 917 809 894 646 1309 713 1143 1231 1032 701 747 1254 779 641 715 744 778 644 1278 1107 1223 1386 746 738 714 665 647 740 1101 674 1475 1287 787 811 1329 815 1226 775 880 662 627 592 696 838 769 732 552 1141 632 668 707 630 1103 629 677 672 567 631 
    </DataArray>
    <DataArray Name="Density" type="Float32" Format="ascii">